<?xml version="1.0"?>
<VTKFile type="UnstructuredGrid"  version="0.1"  >
<UnstructuredGrid>
<Piece  NumberOfPoints="12250" NumberOfCells="23858">
<Points>
<DataArray  type="Float64"  NumberOfComponents="3"  format="ascii">0 1 0  0 0 0  0.25 0 0  0.25 1 0  0.25 0.5 0  0 0.5 0  0.25 0.25 0  0 0.25 0  0 0.75 0  0.25 0.75 0  0.25 0.125 0  0 0.125 0  0.125 0 0  0.25 0.625 0  0 0.625 0  0.25 0.875 0  0.125 1 0  0 0.875 0  0 0.375 0  0.25 0.375 0  0.125 0.3125 0  0.125 0.5625 0  0.125 0.8125 0  0.125 0.125 0  0.109375 0.4375 0  0.109375 0.6875 0  0.09375 0.21875 0  0.15625 0.90625 0  0.25 0.0625 0  0.1875 0 0  0.0625 0 0  0 0.0625 0  0.0703125 0.9296875 0  0.25 0.1875 0  0.175 0.21875 0  0.1686580882352941 0.6314338235294118 0  0.25 0.5625 0  0.1686580882352941 0.3814338235294118 0  0.25 0.3125 0  0.1846093920839711 0.457675742811065 0  0.1846093920839711 0.7076757428110649 0  0.06963315217391304 0.8580163043478261 0  0.07291666666666667 0.07291666666666667 0  0.15625 0.0625 0  0.1875 0.84375 0  0.0625 0.28125 0  0.1875 0.53125 0  0.07552083333333334 0.7552083333333334 0  0.07552083333333334 0.5052083333333334 0  0 0.5625 0  0.07552083333333333 0.3697916666666667 0  0.07552083333333333 0.6197916666666666 0  0.1824174313243159 0.7757901373513681 0  0.0625 0.15625 0  0.25 0.9375 0  0.1875 1 0  0 0.8125 0  0 0.4375 0  0 0.6875 0  0 0.3125 0  0.25 0.6875 0  0.1875 0.285625 0  0.1875 0.151875 0  0 0.9375 0  0.0625 1 0  0.25 0.4375 0  0.25 0.8125 0  0 0.1875 0  0.1349233842818192 0.4925919004742429 0  0.1335152562773358 0.7418878364720013 0  0.0594917385057471 0.5625 0  0.203125 0.09375 0  0.0546875 0.4225260416666667 0  0.0546875 0.6725260416666666 0  0.2019136658660413 0.338216765427811 0  0.1995020000924898 0.5853709998150204 0  0.134375 0.2572916666666667 0  0.134375 0.1802083333333333 0  0.0542280474742976 0.8055614981858166 0  0.1221934647393398 0.8655188450868867 0  0.04166666666666666 0.21875 0  0.15625 0.9583333333333334 0  0.203125 0.890625 0  0.206713569888 0.4132614932290299 0  0.2115463505317381 0.65625 0  0.2012310606060606 0.9393939393939394 0  0.201171875 0.0458984375 0  0.03999561774661511 0.7201937510074146 0  0.0399956177466151 0.4701937510074146 0  0.035784841954023 0.34375 0  0.120327818627451 0.6397058823529411 0  0.120327818627451 0.3897058823529412 0  0.109375 0.9557291666666666 0  0.04564950980392158 0.1118259803921569 0  0.1118259803921569 0.04564950980392157 0  0.08025380291005291 0.3238673941798942 0  0.1112651209677419 0.9105762768817204 0  0.03211805555555555 0.90625 0  0.03828125 0.96171875 0  0.04036458333333334 0.04036458333333334 0  0.03620912949997044 0.5250978305837619 0  0 0.59375 0  0.162109375 0.1044921875 0  0.03118139907916267 0.8408194304321051 0  0.1571963533457454 0.590400949253577 0  0.1587578894014007 0.3394119764183286 0  0.1506969975490196 0.4218175551470588 0  0.1506969975490195 0.6718175551470588 0  0.2070906355574324 0.2473574746621622 0  0.2070906355574324 0.1901425253378378 0  0.08465650753054846 0.1224380150610969 0  0.1114330859658678 0.08648358070079884 0  0.04054746717714226 0.5986883868529541 0  0.25 0.15625 0  0.25 0.28125 0  0.25 0.71875 0  0.2084391486333693 0.742535064766066 0  0.2077428895139916 0.4936107790279832 0  0.25 0.96875 0  0.03666712336686759 0.7684569195137533 0  0.1109703176434807 0.3503952932678546 0  0.1109703176434807 0.6003952932678546 0  0.1323450854700855 0.21875 0  0.25 0.78125 0  0.2086853046321041 0.8079956092642081 0  0.08000310162272527 0.465131759144696 0  0.08000310162272528 0.715131759144696 0  0.1018832642575987 0.1578918738938707 0  0.09479166666666666 0.2583333333333333 0  0.03867928291393143 0.3857193939186725 0  0.09132584216562684 0.7915703900993829 0  0.09224586925287355 0.5407758212513062 0  0.2116835102241899 0.3752677467682454 0  0.0414061843625662 0.6367966883181331 0  0.25 0.21875 0  0.08681832107843138 0.4047372855392157 0  0.08681832107843135 0.6547372855392156 0  0.1712610500122523 0.4982534075100398 0  0.1479279021104813 0.5302308042209626 0  0.1402758174771396 0.4566398871709348 0  0.1401770623234474 0.7063796751786664 0  0.2135607759365587 0.6194448537498545 0  0.07848715477520853 0.8937711976365836 0  0.09934508737030834 0.8377256696305275 0  0.07675624887614536 0.0340696230396066 0  0.03406962303960659 0.07675624887614535 0  0.1440082713785475 0.7789727266050902 0  0.1660139782670602 0.8111869039237365 0  0.07431640624999999 0.96572265625 0  0.25 0.46875 0  0.1698567708333333 0.03024088541666667 0  0.171875 0.875 0  0.03645833333333333 0.2552083333333333 0  0.08098262222381999 0.18607118888809 0  0.02997236128493951 0.143180277430121 0  0.25 0.84375 0  0.2154679739181572 0.5534390521636856 0  0.03645833333333334 0.1822916666666667 0  0.03632264025522072 0.3070202805104414 0  0.21875 1 0  0.1513741686550626 0.8442167313996213 0  0.2168133977813582 0.4459955487717956 0  0.2190131322531496 0.703125 0  0.1727093113888277 0.7413852578608228 0  0.1701041666666667 0.2542708333333333 0  0.1517708333333333 0.1488541666666667 0  0.2142163753799392 0.1278941869300912 0  0.1587267574490621 0.3048224010443303 0  0.2156942356037362 0.3061689288285205 0  0.1725364379972955 0.1836837968219244 0  0 0.28125 0  0.25 0.59375 0  0.09623775023237939 0.2930336745498909 0  0.21875 0 0  0.25 0.03125 0  0.1670095396165001 0.5580904353245775 0  0.21875 0.859375 0  0.25 0.90625 0  0.06770833333333333 0.2392406798245614 0  0.1360540015737478 0.9322916666666666 0  0 0.65625 0  0.2159715577099652 0.7752374751740043 0  0.03967280310556515 0.8734198626945593 0  0.1077910012998816 0.762797795345007 0  0 0.40625 0  0.1171150579179289 0.5198108382041321 0  0.09070664895503529 0.5740093301963526 0  0.25 0.53125 0  0.1411005024478043 0.365749143953847 0  0.203125 0.9716815370501894 0  0.1837945203686314 0.6744812093095998 0  0.2183170921236503 0.1602468982335675 0  0 0.15625 0  0 0.09375 0  0.09375 0 0  0 0.53125 0  0.03125 0 0  0 0.03125 0  0 0.96875 0  0.03125 1 0  0 0.84375 0  0 0.90625 0  0 0.34375 0  0 0.46875 0  0 0.71875 0  0.25 0.65625 0  0.25 0.40625 0  0.15625 1 0  0 0.21875 0  0.25 0.34375 0  0.25 0.09375 0  0 0.78125 0  0.09375 1 0  0.15625 0 0  0.1382501640128451 0.6146706181423367 0  0.1029032040920708 0.4879819075298724 0  0.1112825458828796 0.718954367531518 0  0.2169638964623854 0.5228330254530568 0  0.1405591976966633 0.03688248058223706 0  0.02974586925287355 0.5550688899717633 0  0.2160338230385579 0.2760842074590348 0  0.02581632758445363 0.7963003271249862 0  0.224971958664313 0.921875 0  0.06400137079623429 0.5337450614030229 0  0.2037965081545127 0.21875 0  0.1853048017546082 0.1225569867710261 0  0.02797756823289423 0.4122583915708087 0  0.03201311651072376 0.4416354471567994 0  0.02802337245342894 0.662104489389812 0  0.03186754112015969 0.6915905787012612 0  0.2261855508973228 0.953125 0  0.08036684492372444 0.6860917176336441 0  0.08036684492372444 0.4360917176336441 0  0.1802741037799466 0.4278105955407592 0  0.1778428819444444 0.08089192708333333 0  0.2205285078642384 0.06907401179635761 0  0.1088722606056869 0.1940083737915799 0  0.1367254622493273 0.2860909589983134 0  0.06842073158759261 0.5920268866576984 0  0.184988977893691 0.9143419336810731 0  0.0418402777777778 0.9332465277777777 0  0.1871006213226104 0.6104250062100378 0  0.07985644640444792 0.8173374306235633 0  0.04732923247576441 0.4982821258888622 0  0.06611853992436414 0.780911006716439 0  0.2273935668277038 0.828125 0  0.1858696187385389 0.3143428712429033 0  0.1140892094017094 0.2390357905982906 0  0.1877922691669536 0.3617539661943096 0  0.05758674846768909 0.8333647569007363 0  0.1352608290824233 0.09973815947057559 0  0.1517706243282904 0.2004488161476693 0  0.1449695316901515 0.8810785158450758 0  0.09462378205504757 0.8708015690781575 0  0.227445339911385 0.578125 0  0.05745737992792876 0.4499181399758709 0  0.05780649493506441 0.7003314350163611 0  0.1187818739346447 0.7868226346316679 0  0.1745466635354981 0.9389032027907473 0  0.1256305258840564 0.838799819642297 0  0.06770833333333333 0.2124471236358035 0  0.02083333333333334 0.203125 0  0.140625 0.9791666666666667 0  0.1766821659552516 0.975561292200228 0  0.1620783318872163 0.4727483267075381 0  0.1536725427350427 0.2339082512469609 0  0.1617771474337578 0.278952823831228 0  0.02741604996872549 0.281090803289549 0  0.06183906994143391 0.3975310989925237 0  0.2268982540772563 0.2305832481508689 0  0.2294261974844445 0.203125 0  0.02083333333333332 0.234375 0  0.2223182091346154 0.02768179086538462 0  0.09616947414406221 0.7398115542262675 0  0.1053409896466572 0.4626386355124552 0  0.08648552069711524 0.09585218346816277 0  0.2272083926866681 0.3301067571674309 0  0.1294244353979274 0.06623776300617727 0  0.1263039818717184 0.1504857241294106 0  0.1149927180695202 0.2733691199751007 0  0.06199131875595188 0.7334062158692485 0  0.02625450755792898 0.7434924481572176 0  0.01945983991027112 0.484375 0  0.2275111354177403 0.3554598004473978 0  0.1921314999800934 0.3920320902063825 0  0.2289470153175877 0.4243266814421967 0  0.1870247299647788 0.6491605463078544 0  0.230773175265869 0.640625 0  0.2257840012722039 0.6780142623324342 0  0.2307273932539546 0.109375 0  0.2269693349086677 0.8972169952739968 0  0.1953125 0.8671875 0  0.162762385654881 0.6943720653954724 0  0.161588388430844 0.4440475151025772 0  0.2309500035219089 0.390625 0  0.2299311249500424 0.7955318348720017 0  0.02413306936009103 0.09948394181876646 0  0.09948394181876646 0.02413306936009104 0  0.1330536118107118 0.3370263238470877 0  0.1248085171568627 0.6658847783905228 0  0.1248085171568627 0.4158847783905228 0  0.1449811166772675 0.6384219919056187 0  0.1453180229233392 0.3903903978433153 0  0.09683485463150776 0.3822000850447938 0  0.09683485463150776 0.6322000850447937 0  0.223427517855915 0.4719270744719414 0  0.06546557658678889 0.6423413858921275 0  0.02224001017440792 0.5800747442977685 0  0.05437297849869319 0.3256533714011888 0  0.06877150140910145 0.3458900515631618 0  0.05106406938652892 0.3637940165204562 0  0.191795031
[...]
<PointData  Scalars="flx"> 
<DataArray  type="Float64"  Name="flx"  format="ascii">1.8469281074217108e+01  6.6529757458026452e+01  5.7393409106081572e+02  1.8469281074217108e+01  6.7778420927010259e+01  1.8469281074217108e+01  1.8469281074217108e+01  1.8010315577125294e+01  3.1507280417615351e+02  4.2865096427770286e+03  1.7891595610710846e+02  7.6747057914928041e+02  1.7715773301156872e+01  1.8469281074217108e+01  1.4077168432905057e+02  2.4850927009071904e+02  4.7956913579100984e+01  8.3506371770175406e+02  3.8317588980577398e+02  1.1238059775735508e+02  1.5817563182995875e+02  2.0862020224602873e+01  2.4218604180956316e+01  4.1602334325245596e+02  1.1025886673871844e+02  5.5355875537330000e+01  1.5892523635885617e+05  1.3362648947100015e+03  5.0800576320784600e+01  1.8469281074217108e+01  5.0712302508460077e+01  7.3291521580226927e+01  2.8249240194914239e+02  6.5743996686742406e+01  2.2283260448523288e+02  2.0737473867223191e+01  1.8469281074217108e+01  2.1265923479872267e+01  7.4491491259473401e+02  1.6976440188325498e+01  5.5307376964998718e+02  6.9274220845321429e+02  1.8230758064201002e+01  2.5226711856662427e+04  8.0792796343655448e+02  4.8984186935176588e+01  1.8842071597468387e+01  5.7029646490841863e+01  1.0080330229727852e+02  2.8324798060011325e+01  1.6481844475600403e+02  4.5490276101609041e+01  1.8366895008307910e+01  1.7315025619475019e+01  1.8469281074217108e+01  1.8469281074217108e+01  5.9647262212927430e+01  2.2197083272713587e+02  9.0234010219481497e+03  2.0241124044430965e+01  1.0339231604947865e+03  4.9062462958262989e+02  7.4945263225196259e+03  1.8469281074217108e+01  1.7046405124426506e+01  5.9677204187801927e+01  1.8469281074217108e+01  1.8469281074217108e+01  1.8263724580560325e+01  2.2300860754961857e+01  2.0044838397487172e+03  5.9154118063644979e+01  2.2768858952149898e+01  1.9564961441604373e+02  8.1275829582610839e+01  2.0105913721331344e+04  1.6906285655018814e+02  2.7602784016915183e+02  1.5262295107025755e+04  5.3741785151769795e+02  2.3188461096358668e+02  4.7840065240723817e+01  6.5484118887152727e+02  8.2251659352827642e+02  2.7794287266711660e+02  2.6465940095482784e+02  1.5131526124500502e+02  7.1370541455199429e+02  2.8454662586698402e+05  5.9962818754011845e+04  5.0485651714407815e+01  1.2872388275927486e+02  7.8061043858190749e+02  1.1364090051513426e+03  5.1405585877225114e+01  4.3156497803851407e+03  1.9830632061415919e+01  1.9590287969506545e+02  1.0709272619842153e+04  1.3357866232873323e+02  4.7276117817114809e+01  1.0014378234376277e+03  6.2464536529149036e+01  7.4375073696215286e+03  5.2947904207037755e+03  1.9790089211725379e+02  8.0038412720435997e+02  7.1318844684656119e+02  5.8723404335278053e+02  7.4265985803267782e+01  1.9271239834240745e+01  1.9511077687795758e+01  2.1747815190295731e+02  1.8469281074217108e+01  2.5027506899966235e+02  6.2529082725882276e+01  7.7198920205761374e+02  1.8690019463782281e+01  8.0164963429206057e+02  3.6952568471740091e+02  1.6627223345824632e+02  1.9000038281641253e+01  7.2636829090614228e+01  3.1156381160174129e+02  1.7500402856450329e+01  2.7171133184536143e+03  4.9095899282021591e+01  1.2412800633048388e+02  3.0768940716206890e+02  1.2239616433746935e+03  4.3208804479837875e+02  1.2021478709985001e+02  7.1796722082667571e+01  2.9176459996766193e+03  1.8469281074217108e+01  5.6540413568438032e+02  8.6250567423912770e+01  3.6552112828459253e+03  3.9163269062250187e+01  4.6313999575168140e+01  2.9871478441504570e+02  5.3839207292142767e+01  5.1697163391078305e+01  1.6905275524781678e+02  1.8975551585049607e+02  1.6157026929954961e+03  5.4265408128309389e+01  1.9815613865541192e+02  1.2583583125857287e+04  1.6071256031215029e+02  5.8854886389159092e+03  3.0296344120462038e+01  9.6333477506691834e+03  3.0015827288785740e+03  1.2331448828904979e+03  1.8469281074217108e+01  3.4851115210321495e+01  1.8635591819818011e+01  5.0309710650364501e+01  1.8469281074217108e+01  1.0173895335793136e+03  1.9969456085443053e+01  3.1376640096919425e+02  6.7017207967343966e+03  3.5024235387383357e+02  3.6972151548505870e+01  4.9442373695577220e+02  3.9352164179189012e+03  7.0901014978260326e+04  2.6617635453895456e+01  1.8469281074217108e+01  1.9037514143561046e+02  1.9450451406537344e+01  1.8469281074217108e+01  3.4652676510143536e+05  2.9067220990972254e+02  3.3178813498636038e+02  1.8469281074217108e+01  5.7775192481023971e+01  5.5992057298465916e+01  5.4781050321001767e+03  6.1342730951986603e+01  1.8268482158141133e+01  3.5860627221553948e+01  1.5163407816701243e+02  1.2218605726977175e+03  4.9405584788831007e+01  7.0945262739838590e+03  1.4334053315019418e+02  1.6572255082248434e+04  1.1471828086100835e+02  3.5935544451665959e+02  1.1194094570592385e+02  7.9418860586676101e+02  9.3585152727640121e+01  1.5538149984657628e+02  2.3937836182500146e+03  8.7002959818583975e+01  2.4391109984621576e+03  2.9086765287223713e+01  1.8469281074217108e+01  1.7572809308443823e+01  3.4030608413905084e+03  1.7269677151526921e+01  2.2803759281276380e+04  6.6732776846322004e+03  1.8469281074217108e+01  1.8469281074217108e+01  1.7987137875625078e+02  5.9074573759788393e+01  1.7522874197705605e+01  1.8469281074217108e+01  1.8469281074217108e+01  1.8469281074217108e+01  2.0738897521784239e+02  1.1292832053885313e+03  7.4651191777116765e+01  8.5371113756361396e+01  6.2041781301581227e+02  6.9508377751186388e+04  8.7878736643602792e+01  9.7348597655574613e+03  7.1559784140165647e+01  4.8328645449101572e+01  3.4886543777161178e+03  5.7445229247860220e+02  1.8190287774025059e+01  5.1136857074810479e+01  1.6771926963041281e+01  8.6417990172120972e+02  9.2576706669981984e+04  1.4321835468362458e+04  3.3077190638381435e+03  1.7867267668643663e+02  2.8965542583408296e+02  5.1755510070793022e+01  2.2917505326317869e+03  1.9176988032804143e+01  1.7767766149564903e+01  1.8842270961995773e+01  1.8807291054515911e+01  1.0468241445855156e+02  1.9099467386029879e+01  1.8195528304824453e+01  2.4916361538346050e+02  3.7310537248375193e+04  1.7710050508221288e+04  1.6241773215816504e+03  3.2609920941268624e+03  5.1779420092452732e+01  2.8815186767599693e+02  5.3793914112808167e+01  7.9528251570690725e+02  2.5329463049037336e+01  2.0648172651184436e+02  5.1476778848505234e+01  1.7078988834382777e+01  3.3077894513754194e+02  2.9681810467981643e+02  2.2666717073956072e+01  1.8209370795095847e+01  1.9783697865730954e+01  1.9620424588284482e+01  7.2084879721141562e+01  1.5613063126918883e+02  1.1717966509990437e+02  8.1671897065533884e+01  1.8415325159377719e+01  2.0895034878943983e+02  1.7234175383049163e+02  2.7807115937310527e+02  2.9384651856626777e+04  5.4523032738404311e+02  3.2989925975322319e+02  1.8654635184153406e+01  3.9644127534594276e+02  2.1402984181254702e+01  1.0089462414491728e+03  1.3945571426583996e+02  5.5612688685053989e+01  1.7071655596534345e+01  5.7307358568581446e+02  1.0091737924141194e+02  4.4970615864597137e+04  9.6970175057377830e+01  6.1419154796722296e+02  2.5939763793989459e+02  4.7508255380817769e+02  9.5625554589557495e+01  4.6785651958449606e+01  7.5522104746135852e+01  1.9011664205803793e+01  1.7725937829515999e+01  1.0170573783561147e+02  9.4488942406459287e+01  1.9419933847477914e+01  5.7146846676167809e+02  1.1981913738461010e+02  6.4746265882566220e+01  5.2084221751439870e+01  4.8414663726643603e+01  8.9147891974747790e+02  9.1323080730567042e+01  1.1372976835778466e+02  2.3074910744133720e+02  6.0719385645829807e+03  3.6183897109606383e+04  4.6792674938343147e+01  8.8381041578971235e+02  5.6582544101760504e+03  5.6813003691694246e+02  2.6068414734244294e+02  1.7938105612436356e+05  5.5565306437684944e+02  1.9508782652702469e+03  1.8624462151298960e+02  5.1073006308602053e+04  1.7885989381240304e+01  5.2409314134333755e+01  1.0910862816283832e+04  3.5893221729674877e+02  3.9341564953118086e+02  5.6983351906537964e+03  2.9183331271037252e+02  6.9992734233744926e+01  7.4086231082875116e+01  1.9003844691658554e+01  1.2844991352253868e+02  7.4210494207248757e+02  1.7745829118523680e+01  2.2707293731612719e+01  8.2274260116404196e+02  1.1182935908008008e+02  5.6316077450534031e+01  1.0383041607668817e+02  2.8675838628635989e+02  1.7480750348664160e+03  3.5362280068930468e+03  1.9306044869669921e+02  6.7842882697993858e+01  1.1243160432842394e+03  9.2449170392594824e+03  1.8534526261747775e+01  6.4367288824415641e+02  4.9788814983171427e+01  9.9435187736949399e+02  1.1948987973056014e+03  1.8029256374599285e+01  2.9947553350580296e+02  2.0186337322617817e+01  1.9446704103332909e+01  7.8487478700710017e+02  1.6983767358184593e+02  2.4764588228432462e+01  1.8683547717342492e+01  1.9750386586685963e+01  1.4409585911337945e+03  1.2143779809653078e+02  1.6967287221594940e+01  1.2579072925191675e+04  1.8458644147364964e+01  5.2235456503820629e+01  1.5896002302199106e+03  1.1009046889344615e+03  1.7783730876825328e+02  3.5125041670584636e+02  3.2375816056558286e+01  4.2590965964287261e+03  6.0374341893520727e+02  5.2509773170645268e+01  1.7065466246142236e+01  1.8277848656845375e+01  1.8126460625661160e+01  1.7351682008405355e+01  7.6991265510804453e+02  1.9513093595486168e+01  2.3654733755948847e+01  1.7166396033444610e+03  1.9802066255693529e+01  1.7603678886023182e+01  5.0870284398515345e+01  6.5892214156708221e+01  1.8977103706180738e+01  6.7101112622493486e+02  1.1436397882706100e+04  3.1580540223665844e+02  3.0652668929015949e+03  5.0384100641779514e+03  1.8455572285386090e+01  4.8312758453837006e+02  3.8631797037701438e+02  4.6646204337337210e+01  1.0486053085954663e+02  1.2951443749075311e+03  1.3938586906685507e+02  1.9438971351276373e+03  8.0430751896622587e+02  4.0605967344768368e+02  2.1141901922510453e+01  1.0583933778623148e+04  1.7345425300894028e+01  1.2335583945424405e+04  4.4016469410436304e+02  3.6616059770715395e+01  6.6990876871536955e+01  4.3798866528231895e+02  1.6343531611859626e+02  1.8469281074217108e+01  4.9619187195708257e+01  9.2781640731118557e+02  1.8233829572049391e+01  1.4303086340293330e+03  7.9533126750983854e+01  3.2570234843064719e+02  3.7915702192851421e+02  5.8589534438304836e+03  5.0921033880617721e+01  2.9157050508061047e+03  1.5969898391698518e+03  4.7790378162788591e+02  2.3805973036952267e+02  3.3787387434963641e+01  1.7064661536184502e+01  1.8648111808451823e+01  2.1584400290348592e+02  3.2287892284525032e+02  7.1608440241489939e+02  6.7112700799788208e+03  1.0804794506172018e+02  2.0752070693988724e+01  5.0054683221613416e+01  1.9861500571388856e+02  5.2585404243414018e+01  3.3224558440191086e+03  2.4893214756842876e+03  1.7611118913740279e+03  2.3840316978330370e+02  1.2675324497079316e+03  5.9840395224790612e+01  1.1821385459892761e+03  5.1584399681681624e+01  2.6278769804985671e+02  4.1809935131464755e+01  9.2411565370155344e+01  1.2251885050667772e+04  1.0580386153168767e+02  1.6903870840540146e+03  5.9784589932486665e+02  1.8679850672164977e+02  6.8623708777943348e+03  6.2654734592424219e+01  9.2660295632206476e+02  8.2421119394683686e+01  3.1257888789953562e+01  5.7182440191681917e+02  5.8438670730329726e+01  1.3000025777459973e+02  3.6142208839029918e+04  2.7178778850534178e+02  1.1536554072425200e+02  1.8054819781479939e+01  1.0797209531414418e+02  2.9859551197912930e+02  1.7441884174685537e+01  1.4443494005762312e+02  1.8673188381147114e+01  1.7975003092236761e+03  2.1027909153210942e+02  1.6874259301249185e+03  3.2071400901880203e+01  2.6819129794316705e+01  1.1307082237350110e+02  2.0116151717649856e+02  9.8629806611204643e+01  1.8738416786980196e+01  6.1121162624398877e+01  4.9724648931220962e+01  3.2028357875366484e+04  1.2128508242680303e+02  6.8571515034402552e+01  1.7790168605272186e+01  2.8364203490837161e+02  8.9629066045468835e+02  1.8469281074217108e+01  8.9641390796661781e+01  1.6736088166988246e+01  1.2224924655993548e+03  4.4828503072442135e+02  2.3835502592602840e+01  1.2437028154697987e+03  1.1167692331589083e+03  1.7755904384291913e+01  1.9888212268052271e+01  8.5130235860736320e+03  1.0130859660954795e+02  6.9777607822818467e+01  1.4139282360603835e+02  1.1851612647350288e+02  1.1789308231358329e+02  1.8426234606526389e+01  1.2523034072102955e+03  1.7587836563043869e+01  1.1494247135010494e+03  6.9515168183936285e+03  1.2468801489798626e+02  2.8749477901604255e+03  2.1177262892339800e+02  1.3451258104400677e+03  6.7156552309191682e+02  2.8773881863630373e+02  1.2908511146316025e+02  1.3958587551779715e+02  1.2192761820302550e+02  6.5589610742930915e+01  5.6310731598533742e+01  9.0868238371244092e+02  8.9413587286362272e+01  2.5848951661127705e+02  4.6699609526014370e+02  9.3059363109356980e+01  1.4418151415355823e+02  3.6910687507729939e+01  1.8166326034423157e+01  1.8371750079848336e+01  7.1264763955696097e+01  6.2605703609055934e+02  2.3972893663355165e+01  3.0506064157303733e+01  7.9756473768930945e+01  8.5351665001511253e+02  1.1521188142001991e+05  9.8280411077769406e+02  3.0278352757762713e+02  2.1482886444570099e+01  4.3068876329519935e+03  1.0860835995612704e+04  2.2774840518803941e+02  2.5855989868330533e+02  8.0781622357085709e+01  1.7400125947918275e+02  2.5103663391993329e+01  7.0197599039042728e+01  1.9919116810745617e+01  1.8469281074217108e+01  1.8469281074217108e+01  5.8031960257577348e+03  1.8469281074217108e+01  8.1545539472166035e+02  1.8469281074217108e+01  1.7344619786495409e+02  2.1503114011173491e+02  1.0080489421600275e+02  1.8245349180854060e+01  2.9736475873473879e+04  8.7332005135470388e+02  1.7080452780452998e+01  5.1031820951386308e+01  2.5427269569296222e+01  1.9172631295976470e+02  7.7223041725198996e+01  9.0235763688927045e+02  5.3221219217217588e+01  4.3281184726181539e+02  3.7557497488951168e+02  5.2436463442689686e+01  1.6997222757194159e+01  5.0562607872299388e+01  3.1335854238422991e+02  1.8656799730389302e+01  2.9949024458649763e+01  8.5403010381708867e+01  8.5357624874006399e+02  7.3056952877356949e+01  9.4268895344752693e+01  3.5013589599805209e+03  2.2941112830877824e+01  2.0868714023293339e+01  5.1157384090442996e+01  2.7264172375467842e+02  4.0721526680312087e+02  6.4791254228186881e+02  1.8649181467906978e+01  8.6789799054875985e+01  3.1834268495955207e+03  2.5759097359516090e+01  6.7013924904659098e+03  1.0013288057497441e+02  2.2373656221742519e+02  2.7466332359374487e+01  2.9843526204716426e+01  6.6601901595036310e+01  5.3645188377031822e+01  3.8783687022990243e+03  4.4979868331113401e+01  1.2087006494250434e+02  1.0574073438592212e+02  5.2572327327894776e+01  1.7920124218411164e+01  2.4023256522920533e+01  4.4245951760207863e+03  2.4423202224102489e+01  3.3422310076026326e+02  5.7842334090723830e+02  1.9604451403778562e+01  1.7994343000030533e+01  2.6042858733568092e+01  3.4757932805016503e+03  2.0287654186873141e+02  8.7828909286581393e+01  2.4356265063216078e+01  1.9789928493973491e+03  2.1128488702731840e+01  1.8469281074217108e+01  3.3572433159960038e+05  4.5984097273901891e+05  2.1053367479495844e+02  1.8846732358924747e+01  2.4494264021325256e+02  1.6408058840072561e+04  2.5455116369834565e+02  5.4208110694613188e+03  9.1629908831457897e+02  1.7747067615633110e+01  2.1060285028260456e+01  1.7501551445757599e+01  1.4503579686058090e+03  4.9357886608020772e+03  9.9799457605385285e+01  1.8657403017610722e+01  2.8370208095528683e+03  2.0198201990397172e+03  6.2375136318665966e+01  2.6482793410168910e+01  3.2611748916768429e+04  1.9912176043132096e+01  1.3341211811653741e+02  8.5861476819500325e+01  1.8676716571208793e+01  4.9676049038655259e+02  8.6843603442377855e+02  2.1097752081260644e+01  1.9577289187812482e+02  6.5463679523985206e+01  6.7453437211104259e+01  4.6455031492812242e+02  1.0876218450210145e+03  7.9724801619886978e+02  1.7836322478039129e+01  8.9102943902281709e+01  1.8469281074217108e+01  1.8469281074217108e+01  5.5091350026918064e+01  9.1131522922076510e+02  9.1217214516517529e+01  2.4598966510962937e+03  2.4497116802857768e+03  1.8469281074217108e+01  7.6838340209534526e+03  5.4251980578061044e+01  1.0956833755465991e+03  6.5432180620482697e+01  1.7393971278981045e+01  5.8646186680789120e+04  1.8436145070026598e+01  2.2072198996817656e+02  3.1549157425642761e+02  2.0414940702199072e+01  1.6918054543881243e+02  6.5768695230896796e+01  3.4066426039665674e+02  2.1892394062203752e+02  4.3044258782094545e+02  5.8242255073890772e+02  1.4776451506245300e+02  1.0478254655460587e+03  1.3600646126944321e+02  1.5011454342461224e+02  1.9270924070319861e+01  1.5416538264692733e+03  1.8469281074217108e+01  1.8469281074217108e+01  1.8469281074217108e+01  1.2732723316438464e+03  1.8469281074217108e+01  1.8469281074217108e+01  6.7885023411115228e+01  1.8469281074217108e+01  1.1256807285852587e+02  1.8469281074217108e+01  1.8469281074217108e+01  5.2633715041183443e+01  1.8469281074217108e+01  5.2204460741239650e+01  5.5014712214314187e+01  1.8469281074217108e+01  1.0781446845204096e+03  1.8469281074217108e+01  1.8469281074217108e+01  4.1749840112090459e+02  2.6921597776367406e+02  7.7588594670523992e+02  5.0184133795410020e+02  1.8386729859257949e+05  1.8469281074217108e+01  1.0414788679818781e+02  9.0131380298059230e+02  7.5169668447548477e+05  4.9690190972562924e+01  1.8469281074217108e+01  1.0018078901484419e+02  9.9063317883976845e+02  5.0506035274305518e+01  2.2022490257964913e+02  5.9397085241071782e+03  3.8276918280734276e+02  1.8469281074217108e+01  1.9306941745564785e+02  1.8469281074217108e+01  1.0490081720012910e+02  9.5451405862770926e+01  1.9838248096646785e+02  1.8469281074217108e+01  3.1079741463873661e+03  1.0069570209273805e+02  1.8469281074217108e+01  1.8469281074217108e+01  1.6459148675221927e+03  1.8469281074217108e+01  1.8469281074217108e+01  1.8469281074217108e+01  4.8532382417420342e+02  1.9481362690421971e+01  1.8787203310019482e+01  4.2777782834833823e+02  1.2093003392312454e+02  2.2658690101966680e+01  2.1977287985590638e+03  2.3759722370323539e+02  1.6491177215121678e+02  5.8388561792527526e+01  2.4125554843575443e+02  2.3056068890827877e+01  2.0299374021958055e+01  1.7808891413530660e+01  1.7033984618315646e+01  5.6997583353825611e+01  1.1796783754167620e+02  6.4942228150680976e+03  9.2967931527882641e+01  6.2491315369159196e+01  5.6862419215557047e+01  7.5529002328222717e+01  6.1236613890226556e+02  1.8676743292669780e+01  2.8133819349644898e+02  5.1416199393681680e+01  1.3355074439600942e+05  5.9432820575967718e+01  4.9261800480809434e+01  9.4422609097553092e+01  1.3843786722041337e+04  4.8939066130848907e+01  4.9330094442345548e+01  4.9820775012598126e+01  1.8450362023055376e+01  3.6552895923460866e+01  4.9826162443098546e+01  6.8236291609728070e+01  4.6199736057711547e+01  1.8479095780329953e+01  1.9379013872385315e+01  6.5007017447616320e+01  1.4387800290052365e+02  1.8060316319574369e+01  6.7304936365327103e+02  8.7475788166766776e+01  8.0615959847872512e+02  9.2524920664944830e+02  1.3611635187471720e+02  1.3410003593028598e+03  4.5266550071932570e+03  1.6691692114754296e+01  1.1064221871637053e+03  2.4127843428552869e+03  6.0047943052154233e+02  3.5832718920382908e+03  1.6778204043715830e+03  6.9814045670406472e+01  3.2372202039058141e+02  3.9805855018481928e+01  2.7917192158299560e+01  2.8201726722543448e+01  1.7036955195796594e+02  1.8049092122757315e+01  5.1593021231508416e+01  1.1863654548454348e+02  3.2057819898449281e+01  1.5440723756941240e+03  2.5473109968925296e+03  1.8222074359674956e+01  1.8789028605937286e+01  5.0121389295898162e+01  1.4996171897057172e+02  2.8198194449668921e+02  4.6887059019861951e+01  2.2218762725472396e+04  9.3702726255299098e+01  5.7696565409994764e+03  2.5086164471688198e+03  6.7446962596429330e+01  1.9150662405089705e+01  1.7916799540681613e+01  2.0317940115203737e+02  4.0011175886531396e+02  1.7224004692377355e+03  1.3535300467559924e+04  1.8497213926146557e+01  9.6674366979763192e+02  5.0213451397535074e+01  4.9855597436677591e+01  4.6966248995214301e+01  5.9171554349643679e+02  1.5629146869991720e+02  1.4461002023687617e+04  8.9586641270713017e+01  3.6846235276914292e+01  7.7319694799832050e+01  4.1496127070518945e+04  5.0161986719535136e+01  2.1088279194395403e+0