<?xml version="1.0"?>
<VTKFile type="UnstructuredGrid"  version="0.1"  >
<UnstructuredGrid>
<Piece  NumberOfPoints="1696" NumberOfCells="3102">
<Points>
<DataArray  type="Float64"  NumberOfComponents="3"  format="ascii">0 1 0  0 0 0  0.125 0 0  0.125 1 0  0.125 0.5 0  0 0.5 0  0.125 0.25 0  0 0.25 0  0 0.75 0  0.125 0.75 0  0.125 0.125 0  0 0.125 0  0.125 0.625 0  0 0.625 0  0.125 0.875 0  0 0.875 0  0 0.375 0  0.125 0.375 0  0.125 0.3125 0  0 0.3125 0  0.125 0.4375 0  0 0.4375 0  0.125 0.5625 0  0 0.5625 0  0 0.6875 0  0.125 0.6875 0  0.125 0.0625 0  0 0.0625 0  0.0625 0 0  0.125 0.8125 0  0 0.8125 0  0 0.1875 0  0.125 0.1875 0  0 0.9375 0  0.125 0.9375 0  0.0625 1 0  0.0625 0.78125 0  0.0625 0.09375 0  0.0625 0.65625 0  0.0625 0.53125 0  0.0625 0.40625 0  0.0625 0.21875 0  0.0625 0.90625 0  0.0703125 0.71875 0  0.0703125 0.15625 0  0.0546875 0.46875 0  0.0546875 0.59375 0  0.0625 0.3385416666666667 0  0.0546875 0.84375 0  0.05338541666666667 0.2786458333333333 0  0.046875 0.046875 0  0.078125 0.953125 0  0.03125 1 0  0 0.96875 0  0.09375 0 0  0.125 0.03125 0  0.0375 0.953125 0  0.08749999999999999 0.046875 0  0.125 0.28125 0  0.08857717803030302 0.296875 0  0.08456307870370371 0.2527488425925926 0  0.08432904411764705 0.8157169117647058 0  0.125 0.78125 0  0.08432904411764705 0.4407169117647059 0  0.125 0.40625 0  0.04067095588235294 0.1842830882352941 0  0 0.21875 0  0.04067095588235294 0.7467830882352942 0  0 0.78125 0  0.04067095588235294 0.6907169117647058 0  0 0.65625 0  0.04067095588235294 0.1282169117647059 0  0 0.09375 0  0.09230469604198556 0.4788378714055325 0  0.08432904411764705 0.5657169117647058 0  0.125 0.53125 0  0.09230469604198557 0.6038378714055325 0  0.09230469604198557 0.8538378714055325 0  0.125 0.21875 0  0.04036458333333333 0.3723958333333334 0  0 0.40625 0  0.125 0.34375 0  0.09223090277777779 0.359375 0  0 0.34375 0  0 0.71875 0  0 0.15625 0  0.03125 0.640625 0  0.03125 0.234375 0  0.09375 0.921875 0  0.03125 0.796875 0  0.09375 0.765625 0  0.03776041666666667 0.8776041666666666 0  0 0.90625 0  0.03125 0.421875 0  0.03776041666666667 0.5026041666666666 0  0 0.53125 0  0.08723958333333333 0.1223958333333333 0  0.125 0.09375 0  0.03125 0.546875 0  0.09375 0.515625 0  0.08723958333333333 0.6848958333333334 0  0.125 0.65625 0  0.08723958333333334 0.1901041666666667 0  0.09285237672216495 0.6388297534443299 0  0.09120871566215796 0.887895068675684 0  0.03697337403288202 0.3117847356544165 0  0.03125 0.078125 0  0.03125 0 0  0 0.03125 0  0.125 0.96875 0  0.09375 1 0  0 0.28125 0  0 0.46875 0  0 0.84375 0  0 0.59375 0  0.125 0.15625 0  0.125 0.71875 0  0.05859375 0.625 0  0.09203062351730669 0.3280299106084038 0  0.125 0.84375 0  0.125 0.59375 0  0.125 0.46875 0  0.09375 0.4106043198529412 0  0.09375 0.2226289308756895 0  0.125 0.90625 0  0.03125 0.9082327178030303 0  0.09375 0.0917672821969697 0  0.03157790017660633 0.3424870324872683 0  0.02669270833333333 0.2643229166666667 0  0.06829273545144836 0.4982032167254387 0  0.06675762813866792 0.8709439182360006 0  0.05576041429493017 0.2497890636858682 0  0.02734375 0.609375 0  0.02728074596774193 0.5779989919354839 0  0.02734375 0.453125 0  0.02734375 0.828125 0  0.09765625 0.734375 0  0.05493844330495356 0.4393276533475232 0  0.06816449879002234 0.7535164975800447 0  0.05493844330495355 0.5643276533475232 0  0.05493844330495355 0.8143276533475232 0  0.0299965987454304 0.71875 0  0.02999659874543037 0.15625 0  0.0813426135756993 0.3853350519425603 0  0.09765625 0.1637369791666667 0  0.06467653953877486 0.310910294982067 0  0.02169857614656033 0.203125 0  0.02524899995375509 0.1051854999075102 0  0.09975100004624492 0.5426854999075101 0  0.09975100004624492 0.7926854999075101 0  0.02524899995375508 0.6676854999075101 0  0.0216985761465603 0.765625 0  0.04823956951149876 0.928748603739466 0  0.046875 0.9782291666666667 0  0.0671875 0.06614583333333333 0  0.078125 0.02177083333333333 0  0.02127436155913977 0.390625 0  0.1006667715324385 0.7079051314317674 0  0.02433322846756151 0.8545948685682326 0  0.02433322846756151 0.4795948685682326 0  0.06536484344506666 0.3645784953935692 0  0.1057502727878818 0.265625 0  0.09765625 0.97265625 0  0.07158549886191198 0.9769868329539707 0  0.02083333333333333 0.046875 0  0.046875 0.02083333333333333 0  0.1015625 0.9453125 0  0.105773175265869 0.578125 0  0.105773175265869 0.828125 0  0.1057731752658691 0.453125 0  0.02403140427485829 0.9326371297403401 0  0.03105806221105027 0.2882216937203155 0  0.02269345238095238 0.02269345238095238 0  0.02265857126276695 0.9773414287372331 0  0.1023414287372331 0.02265857126276694 0  0.1050021911266925 0.1399031244962927 0  0.1004761981537389 0.6631336343087164 0  0.01789242097701151 0.515625 0  0.1053197095586611 0.3892428214300389 0  0.1071947968863412 0.203125 0  0.06483609068627451 0.1801470588235294 0  0.06307444852941177 0.1182598039215686 0  0.06307444852941178 0.6807598039215687 0  0.07134406133247276 0.9276243773350545 0  0.107023448305187 0.110594895408122 0  0.01797655169481303 0.8894051045918779 0  0.0896290604425302 0.06945979794392823 0  0.01643913299282548 0.359375 0  0.04012690145502644 0.5255663029100529 0  0.07724934918388508 0.2756598204935206 0  0.04333510829975742 0.3946172288681074 0  0.04382482319049504 0.7689316254597454 0  0.04078217840056862 0.2143768568011372 0  0.01872387163348762 0.3244028916671824 0  0.0195742471369305 0.6987325881931771 0  0 0.734375 0  0.0195742471369305 0.1362325881931771 0  0 0.171875 0  0.125 0.078125 0  0.02106088043659297 0.7382013359382263 0  0.02106088043659297 0.1757013359382263 0  0.0497677502679564 0.1647704182208795 0  0.1041623508625682 0.2422658327302558 0  0.125 0.421875 0  0.1039703258643078 0.4303318325659762 0  0.05877296560275284 0.7012639504860959 0  0.0501545493727152 0.727123133991979 0  0.06896549282708588 0.8291595335799418 0  0.06896549282708588 0.5791595335799418 0  0.05561978654147531 0.1989614820041244 0  0.07032296246331207 0.4254414436261769 0  0.05877296560275287 0.1387639504860959 0  0.06896549282708585 0.4541595335799418 0  0.07859817667287269 0.7952004746267884 0  0.07859817667287269 0.5452004746267884 0  0.1054638298647563 0.05657430832458488 0  0.0578125 0.9598420210926695 0  0 0.953125 0  0.0671875 0.04015797890733056 0  0.07649432244045254 0.2338267641856086 0  0.04866265018175087 0.3532402205496085 0  0.04529605546323741 0.670940902672186 0  0.04529605546323739 0.108440902672186 0  0.07114475473057193 0.6075619837836785 0  0.1053722369453574 0.2857608974857906 0  0.1041142204473487 0.3109216152144918 0  0 0.296875 0  0.01867881746150348 0.3038534200233671 0  0.05524134160257502 0.5129465446468287 0  0.06099431830938445 0.3844706742360927 0  0.1038714447569958 0.4968053895139916 0  0.07261836495365119 0.8520669608573707 0  0.125 0.859375 0  0.1042195743166846 0.871267532383033 0  0.1042953726576324 0.6211504246078988 0  0.07222987402884687 0.4785156251683452 0  0.125 0.328125 0  0.125 0.984375 0  0.08224716045754427 0.65550416509288 0  0.07174465449286124 0.6392252775633923 0  0.104342652316052 0.903997804632104 0  0.08499844918863737 0.142434120427652 0  0.0844985192851985 0.6214602780221394 0  0.04739583333333333 0.06666666666666667 0  0.05529012802864505 0.8874707890510186 0  0.07963297040422486 0.2085407376975881 0  0.1058968411519645 0.6894306991298484 0  0.07766817664565827 0.1056561296393557 0  0.1057560771716062 0.1835282231549565 0  0.07773382092984268 0.7013018062982547 0  0.04305452277962929 0.4840923655564813 0  0.04305452277962929 0.8590923655564813 0  0.01875 0.950780111105415 0  0.07024795506527168 0.2930300420408972 0  0.0478397200304771 0.2965328103930845 0  0.05121648255071443 0.3237514478060962 0  0.08754502715293848 0.4598932538963194 0  0.08754502715293848 0.5848932538963193 0  0.08754502715293848 0.8348932538963193 0  0.0809015012254902 0.1712526807598039 0  0.01829563924765609 0.4971063294237891 0  0.125 0.640625 0  0.1084926420285044 0.3359375 0  0.1063049178180489 0.07791358842139073 0  0.07632685032323469 0.08189787709891407 0  0.07651225432210323 0.3501759166473921 0  0.1069221282820671 0.370738774849029 0  0.1067803879682793 0.8097224268749272 0  0.1067803879682793 0.5597224268749272 0  0.0732493355785593 0.8876902320260575 0  0.01502467351849249 0.9167032210578127 0  0.08615695482809546 0.4994098249368031 0  0.125 0.890625 0  0.02098784564269657 0.8719694826931684 0  0.08605728693236238 0.7487942702415453 0  0.125 0.484375 0  0.06046421450728726 0.9420052721508373 0  0.109375 1 0  0.08004180148148797 0.777271102962976 0  0.04883736512240355 0.2304872302448071 0  0.04561230035288119 0.7865371007057623 0  0.04586777931655463 0.4120480586331092 0  0.04802334735844737 0.5413591947168948 0  0.08580129279582045 0.9374318963979102 0  0.01822916666666666 0.06510416666666667 0  0.01726601304092138 0.6517195260818428 0  0.01726601304092139 0.08921952608184278 0  0.04468848999483189 0.6528105200103362 0  0.01827879140158732 0.7837549171968253 0  0.01825288449808249 0.408806731003835 0  0.03971354166666667 0.6236979166666666 0  0 0.421875 0  0.015625 0.4296875 0  0.01816132012761036 0.5339898597447793 0  0.01888020833333334 0.6263020833333334 0  0.04468848999483186 0.09031052001033626 0  0.01827879140158732 0.2212549171968254 0  0.07457391546693767 0.5163353309338754 0  0.125 0.921875 0  0.1077339869590786 0.5267195260818428 0  0.1077339869590786 0.7767195260818428 0  0.1101351348842065 0.759332769768413 0  0.08233437225029967 0.9056437554994007 0  0.0184015012254902 0.2477405024509804 0  0.01883462974062772 0.5611067594812554 0  0.01888020833333333 0.8111979166666666 0  0.1086095656153081 0.3533788510713674 0  0.06562230895048585 0.7359098273357195 0  0.03710573475337388 0.8426414021221816 0  0.03710573475337388 0.4676414021221816 0  0.125 0.671875 0  0.125 0.609375 0  0.1076303706657158 0.4704816551506308 0  0.1095065661265748 0.8515625 0  0.1076303706657158 0.5954816551506308 0  0.03385416666666666 0.03571428571428571 0  0.0863546556944139 0.8706926289304113 0  0
[...]
<PointData  Scalars="flx"> 
<DataArray  type="Float64"  Name="flx"  format="ascii">4.0110333736659004e+02  3.0627281410861956e+03  2.5733517654456006e+02  6.9086655700796022e+00  6.8261938272129362e+02  2.3419314868346964e+02  1.4869369799872986e+03  1.2749031925734907e+03  2.0473668436258860e+04  3.9463396593125782e+02  1.3341546502029501e+04  6.7232178200784383e+03  1.9980777486043007e+04  1.1745037086305470e+03  4.3150519515486021e+03  3.2682234774247803e+02  3.3124969086555147e+01  1.6863691343359501e+03  1.3830844345747039e+03  2.6506552568944862e+04  3.4361909829466036e+04  2.5659504717851995e+01  2.4913156559972123e+02  7.3753492943456035e+02  5.8459775271460421e+02  9.8554134846732734e+02  1.2834845030675433e+02  2.0249602871931286e+03  5.0112078008702838e+02  5.0108644629093368e+02  8.0337862710976253e+02  4.3406987333843872e+03  1.2802245072447749e+03  6.8847416525429151e+02  2.4596934118245140e+03  3.5110871275423968e+01  7.6293512606586546e+02  9.9633321399217596e+02  4.0282158334895826e+02  2.2816483509694594e+03  8.0429426295870985e+02  5.8487978326449581e+02  3.0960233311885935e+02  2.3078599034620785e+02  1.9810178949032272e+03  1.3542666177192203e+02  6.6901436100251749e+02  1.0406200308655309e+03  1.4198942010528442e+03  4.1674443625706908e+02  1.3421860850163857e+03  5.8778051888560849e+03  6.7973790982671176e+02  9.8865885972586327e+01  3.3914835704919261e+02  7.1428414045154818e+02  3.6335883422557635e+02  2.1875050727576313e+03  1.7145322387957463e+03  2.6054563591998940e+03  4.6876863295725241e+02  1.2848150026916335e+03  4.1310263454605334e+01  1.3780011224997330e+04  2.3687386952731859e+02  2.0873789605251573e+03  2.8794656035187973e+03  9.7477122359567566e+03  1.1831986288101141e+03  3.1540522128808698e+02  9.4333947922681568e+02  2.8821684429215543e+03  4.1665751443662252e+01  4.6094176912964372e+02  2.2933974840221381e+02  4.1685513304843170e+01  1.1261224155097068e+04  1.7601775087937103e+03  8.4255555725648610e+03  3.0369562620370726e+02  2.1414907509027762e+03  5.5211798161942959e+01  7.5533820469955322e+02  1.1604358384106870e+02  1.3089766750838257e+03  3.4415688148584172e+02  1.4717125734794065e+03  7.0400245953985984e+02  2.5545958627506411e+03  6.1587228573951018e+02  1.3281896201223847e+03  1.4279744648271071e+03  1.0147059036299306e+04  3.6122954412475137e+03  6.1051263111205560e+02  1.2782362241205576e+03  2.9598626782541915e+03  2.5199132441682482e+03  1.1328177502269157e+03  4.0820792325013790e+04  9.9331350593035586e+03  1.5710331717473542e+02  1.2032436868841321e+03  4.3886754931568403e+03  2.1811575641325517e+03  9.8095056652568310e+03  1.2512444887609390e+04  3.5485998361999009e+03  1.2553240818134850e+03  1.2194739698507287e+03  4.4810964677305165e+01  3.3938343751657510e+02  2.8797606508568383e+03  7.0338528455426804e+03  1.2102606914731570e+04  3.8167737553712402e+02  4.3642238060979644e+03  3.0901005265637883e+02  4.6802234121094289e+03  4.4243083954060612e+03  2.4846677771410052e+02  4.0676923266262315e+02  3.5997681951275777e+03  7.3317932127310069e+03  3.9055874739927776e+02  4.2140441981179356e+03  1.4031357263558741e+03  4.8972083255205443e+03  6.6731228701636610e+02  2.8095356568696716e+03  3.5534984946858060e+02  1.4875770942564296e+02  2.3103175700566790e+03  2.2896351695201097e+03  1.7953223956274594e+03  1.1302644890065007e+04  1.4595628654579821e+03  6.0132316145506184e+02  6.0513057861846517e+02  2.3331807934740235e+02  1.7170819384013298e+03  1.1671460298942509e+03  1.5049834349082707e+03  1.4617289358244027e+03  1.6755384693490984e+02  4.7929915518389180e+02  4.8396958126371737e+03  2.3804835675935948e+02  1.6416363129067970e+03  9.3891177108131853e+02  7.0292143151387984e+02  7.2642554584004210e+03  7.4730020922284302e+02  5.0986257997058715e+02  3.5944491167985217e+02  2.4586336775998748e+02  5.6301896521953904e+02  2.2578815535815716e+03  1.3325428638073183e+03  2.5287564653861691e+03  2.3581247336047869e+02  1.4752570783825904e+03  6.1829916757540022e+03  3.5345161331946128e+03  1.7678758789229603e+03  2.9229602675662600e+03  4.8650772208548387e+03  3.7226612599983696e+02  2.2740991420326491e+03  8.7513960115825976e+03  3.8226168354577312e+03  1.7029658770927304e+03  2.9302267888449855e+03  1.1063712790969232e+03  1.8135189714221453e+03  1.4263084143099257e+04  3.5339688407737418e+02  3.1570158375367527e+02  5.6828557185953741e+02  2.4093353170244814e+03  2.3348918388421913e+02  2.6493287087243010e+02  2.2951926607535165e+03  3.8010049000007791e+02  4.1073962783560892e+03  7.2486837234140303e+03  5.9185147276436362e+02  1.2561476285703543e+03  3.5336192495564478e+02  2.2915047495475562e+02  2.4771351924901883e+03  5.8353420874324020e+03  3.4151081704554235e+03  2.8292851654443577e+04  3.8565683323620260e+03  3.8924577271522782e+02  1.1354654141542922e+04  1.1461285376918756e+03  8.6795290315891702e+02  1.5576256634147876e+03  3.9252190257553284e+03  6.5925582232085969e+02  1.2120572613294796e+03  2.6909711260982988e+02  4.8885278388588769e+04  8.0635066243886081e+02  7.8826311254058476e+02  2.6736247208017431e+02  4.0109684106089253e+02  3.4520196689436557e+02  2.5173325179269905e+03  3.0538435411156456e+02  1.0460555020378545e+03  2.9442161769504753e+02  2.0157100336856029e+03  2.6295707679000479e+03  3.2643111106520826e+02  1.0108701379772540e+03  2.9865369943775920e+02  4.4305841553249229e+03  2.9265714908888981e+03  3.1681641740860789e+02  4.6114233514797297e+02  3.6266179228738099e+02  6.1264022568730134e+03  9.7678481222140126e+03  6.8054418376807723e+02  6.8045897281536572e+03  1.7088690501387916e+03  7.0463338311842608e+02  3.3003443505908167e+03  4.0252152051122511e+02  2.1673111854786594e+03  1.2466512748674995e+04  3.2207869542576285e+04  9.5456819603519909e+02  7.2220676571343165e+03  9.4531075129193994e+02  5.5821482149641758e+02  1.3446325158165505e+03  9.4011361029923012e+02  8.6849513044068808e+03  3.5948311702314672e+03  2.4070849011757623e+03  3.4370759099678423e+02  2.9112753451198919e+03  3.4005829989640159e+04  9.5495607952330977e+02  1.1600425600954547e+03  3.5819620118306025e+03  3.2641975373682448e+02  1.0441561574189648e+03  7.9868487278919508e+02  4.4505870221681562e+02  1.5242106343454773e+03  1.5504069769840426e+03  1.6730262215645216e+03  3.2728159023977182e+03  2.2236927462894173e+03  2.6745754053363646e+02  2.6532647402925645e+03  2.5748611181445390e+03  1.7446912977058739e+03  2.6927127649445397e+03  2.1100698653584450e+02  5.4697344519698822e+02  1.3150441515163589e+03  6.3085551816684447e+03  7.8186981970537306e+02  6.5107882549550447e+02  6.0633288171482109e+03  4.4263546908013141e+03  2.1248547117181406e+03  2.4729591044135123e+03  7.8114579779704002e+02  2.7746276043894653e+02  4.7183287607114187e+02  6.2848947904107388e+02  1.5517896619219258e+02  3.0612973142070774e+02  1.2881454425198890e+03  5.0023507709106786e+02  2.0923408492287507e+02  2.8885394648108709e+03  9.4925066548173982e+03  3.6156230251180609e+03  1.0574125508364488e+04  4.1172309409429278e+02  4.2914372423493296e+02  9.4452170822708777e+03  1.1999650994155511e+03  1.1230623073370474e+04  5.8728562897009351e+03  1.8759387325059959e+03  4.2155903389881232e+03  7.6920105530072569e+03  5.5083520929984415e+03  8.3958669096865797e+03  1.3533413347818700e+02  4.0347176109924321e+03  8.6928177137860155e+02  4.9833393965510186e+03  4.9470265271264662e+02  6.6258714049483906e+03  1.2230815015368091e+03  2.8801877295280005e+03  1.2091695805448092e+03  6.9438199655790368e+02  5.0521308215412355e+03  9.1663768500231333e+02  2.0569749297473891e+02  2.0742682549253593e+02  3.4431015936222389e+02  1.1789315920960089e+04  1.0734346733243269e+03  5.7547950622468329e+02  3.3596608095622419e+03  4.6076713945623322e+02  5.6673356247007787e+03  2.8726289115505142e+03  4.2276394000926132e+02  2.5246693458526320e+03  1.9080141580270781e+03  1.3737872188053786e+03  4.4366403708449643e+03  1.1764263296200681e+03  2.5848840502876715e+02  2.8004822402275408e+02  7.0470609966278107e+02  5.4028429100823623e+03  1.8017630754256435e+04  1.3451283852646798e+03  3.2518404184983319e+02  4.6785296827841903e+03  2.5659216897364070e+02  1.2104608253557010e+03  8.0605285277698513e+03  5.6251643801866089e+02  2.5977258613860522e+03  3.2615274823079258e+03  2.5971750543797560e+04  3.2607825442687040e+03  1.5122623514929314e+03  2.7243527899682986e+03  4.2344573701146072e+02  1.1102916003087171e+03  3.1023682890317423e+02  5.6833340362602382e+02  3.1354738698261451e+02  4.2918679243841200e+02  6.2493685600808556e+02  1.5110241291729133e+03  8.3900431834706869e+03  6.9125324029377805e+02  1.4210271478751770e+03  8.0028500889644158e+02  1.3254674659299628e+03  3.6633785007677907e+03  3.2121414774222586e+02  4.3562628814290438e+03  1.2695369110916984e+03  7.3004727724572405e+01  9.9149814006223517e+02  8.6643909132545446e+02  2.8979729974075531e+03  1.6440632078688421e+02  5.6031384636906459e+03  3.0846889272590404e+04  2.0566857620223247e+04  6.8945928031675726e+02  4.8015737843375391e+03  5.2619823856770872e+03  1.0355114894011456e+03  4.8108311051103976e+02  1.5968329259467600e+03  5.1764211893839706e+02  1.2604543362876118e+04  4.2165622118285601e+03  1.4638436881875185e+04  2.4407273230849510e+03  2.3155165334104418e+03  1.3172210894054053e+03  3.8092529670423360e+03  1.5571900194380109e+04  2.8490892383620680e+03  1.9792101213324740e+03  1.2358258651408640e+04  4.9287547088283764e+03  3.2176342472277898e+04  2.9504631005157644e+03  2.8494076208067354e+03  3.1502754332779518e+03  4.4116565631698018e+02  8.9906124404272687e+03  1.7561708259687609e+03  1.4138617319592400e+04  3.1672159511052791e+02  1.3676944733465396e+02  3.4170068055560978e+02  3.3536772217816377e+01  1.6489753227985943e+03  1.2061591019868076e+03  1.2576532287658283e+03  1.8377436824630595e+02  2.2527457119660093e+02  6.4007348345679964e+02  1.2936555352106213e+03  1.7717938701022592e+03  3.0928320715878698e+02  4.4281879198577889e+02  3.2832355324891452e+01  1.3521210223492170e+02  3.7006151685685436e+03  2.1441696785660370e+03  1.4060847617113097e+03  2.5905388644109244e+03  9.9824841916957189e+02  1.9240388960450298e+04  8.4785184632239304e+02  8.7864679046999811e+02  1.8321759928619485e+03  4.1134445472026533e+02  1.2992730860232932e+03  1.9778974894194457e+02  1.4903745353951927e+03  9.3526136688466738e+02  7.3917579830329714e+02  5.7896729610358248e+04  3.7921080121705836e+02  8.7250958597315241e+02  2.0203718218427975e+03  2.8534926902484272e+03  1.1811362651060535e+03  1.1747711220391236e+03  2.1876376131883293e+02  2.1583596054284394e+02  4.1162059800061597e+03  8.1976412921305496e+02  8.1458559821754739e+02  1.5955666633801502e+03  2.9308658370086164e+03  1.2571418696407002e+03  4.8938378122420374e+02  1.9594087210522122e+02  1.3641779085660306e+02  4.6055372741539832e+03  3.8538602995073165e+02  3.5428313794085312e+02  3.0934710757532662e+03  4.7280124702405301e+03  1.7925925205327576e+03  2.3483746344295441e+03  3.1535160650705922e+02  1.1258805176629787e+03  5.5790463778554295e+02  6.0718676156231459e+03  1.9362554096020531e+02  4.5303810226251903e+02  5.3164970925168418e+03  1.3001716771787372e+02  3.1725934364061782e+03  2.6920158332926444e+03  1.9024085229319669e+03  1.2097732874985152e+03  1.8678776730409351e+02  4.7136459788001599e+02  9.6756813067338851e+02  9.3690572282743415e+03  2.4830711083636399e+02  1.4337617901750386e+03  4.0511375805155529e+02  4.0378432035090782e+02  8.7108941150326768e+02  2.1263405076962458e+03  3.9223018088454955e+02  6.5249830247560078e+02  4.6802772746983203e+02  1.2266170294785393e+03  1.1883577890954311e+04  5.1866135766056286e+03  7.3471069367745395e+03  8.7142735010049673e+03  3.4036468309670920e+02  1.8938055301964089e+03  1.9805485925857065e+03  1.0116538663804284e+04  2.8576541447420859e+04  1.7555412838109416e+03  1.6843838187356014e+03  4.7124039211767486e+03  2.5927287332419650e+02  1.2805442432128589e+03  3.3141721302707756e+03  3.3046549858540595e+02  1.6079286410284815e+03  4.0136208719631477e+03  2.1203820562812874e+04  5.4522232579472904e+02  3.4997801374969578e+02  2.2311811782937295e+02  8.3391156448251524e+04  6.5254226398893379e+03  2.2744687720647593e+02  8.1799613382002758e+02  7.2013210118109555e+02  2.1250680692220071e+03  3.2316353129419559e+02  3.6376136793323080e+03  5.9360331746206202e+02  5.5211449436525581e+03  1.6199778327537574e+03  5.5199966196895048e+02  3.9915526547000663e+03  3.7581412522580899e+02  1.1414125898264695e+03  2.1109063761293519e+03  7.4532696967314803e+02  3.1701193536672372e+03  7.0281951849657378e+02  6.9170359422009924e+03  6.3097301951885402e+02  1.3417790730090856e+03  4.8829045748269766e+02  9.5846430714865055e+03  2.6243480682525897e+03  2.3834427734917938e+02  5.6600643483185206e+02  8.3960995948782283e+02  6.4120051106362480e+03  2.2333391978114719e+03  3.2262941479282877e+03  8.7345606255670975e+02  2.1194245782197970e+02  1.7622807587687043e+04  7.0150853800240395e+02  5.8144746541031793e+02  7.3081931279328069e+02  2.8369192014900368e+03  2.4740376952183251e+03  4.2480175361287120e+03  2.3327266449363199e+02  1.3783885042870133e+03  3.5881527334861134e+03  2.4410501677982728e+02  3.3958672928336528e+03  1.3287972279872929e+03  4.7306977649643486e+03  6.2527206478015114e+03  2.1499141851917084e+03  1.2999442578498008e+03  4.7757908441260514e+02  2.1174179666985751e+03  6.8117678329627106e+03  1.1086670420973698e+04  1.4198904041388807e+04  3.6127313889878214e+03  1.2724125561745715e+04  7.7659092357593308e+03  1.5081430176197051e+04  1.4303161612536567e+03  9.2931914650486124e+03  2.3466422841388878e+04  5.3119743774546214e+02  1.8958859513364444e+03  3.2874773660453325e+03  1.2891093496526623e+03  2.3591280761930184e+02  1.0507692380775518e+03  3.7387984652873155e+02  1.2524869175026668e+03  6.0733702214784054e+04  6.9459054782840203e+03  1.4000212924537061e+03  3.0527551391326841e+04  5.8878137064898146e+03  2.8976004749251075e+02  3.0801922848188219e+03  7.7683808063148331e+02  5.0529702455426434e+02  5.6375204130440659e+02  1.7499898031028038e+03  2.5874071143634533e+03  3.8935846155078707e+02  1.2026311637617832e+03  1.7857290076682800e+03  5.2154141841848707e+02  9.4172903050187676e+02  3.3500399933220223e+02  1.8382624383324017e+02  9.1571212733348193e+02  1.2419166269974537e+03  4.1405058252935271e+02  9.4475549063767539e+03  3.2958067906094635e+04  7.2638977302668054e+03  4.8204087306286937e+02  2.3197441712481948e+04  1.4258422390923915e+03  1.9818625063716099e+03  1.0306625550312242e+03  1.2943619614189243e+04  1.9042913210238949e+03  3.0417524212373078e+03  1.3862890503788972e+03  4.4284261994808821e+02  3.4968095033517687e+02  1.8870231993742935e+04  2.2839265628261179e+04  3.8147997679899818e+04  2.4001849490550649e+03  2.7004221732507068e+02  3.8076891668623884e+03  6.3755413201441183e+02  9.5233680856238570e+03  1.7542175028358549e+03  2.1923204360305658e+03  2.2100308959567401e+03  5.0304016573010313e+03  1.0782724767851358e+04  3.4101185030134218e+02  4.3333489681655851e+02  5.9702460297234370e+02  2.9457862752212492e+02  1.1032601640359844e+03  2.2627888446595418e+02  5.9539378063544782e+03  6.0528134457409387e+03  4.5817469791506045e+02  3.2625195722485656e+04  1.2737659362456025e+03  5.6027788436723195e+03  1.4410637441732351e+03  4.1433618912111815e+03  7.8030919537259442e+03  3.2741870531685054e+03  1.2700822080552009e+03  3.1034121092398189e+04  4.5306391977076082e+03  3.7267722396544980e+02  1.0587471275781666e+03  1.2598014104620514e+04  2.6169270683246700e+03  6.5676646864972315e+02  6.2364436670916793e+03  1.0734294102999991e+04  1.1014241413480770e+03  2.4680266352587856e+02  5.7538369868570032e+02  5.8901088378369116e+02  3.8836061319267128e+03  1.0314620896383358e+03  4.8308721405737824e+03  2.2667823246303424e+03  6.6384194356736748e+02  3.9007756841231167e+04  1.7778353934396632e+03  1.7883997898580199e+03  8.5231395421648290e+02  1.3099631812876287e+03  2.6286092314754649e+02  9.7510910590076708e+02  4.7856021011728905e+02  4.0971627482575366e+02  3.6611070082345068e+03  7.2925163546970389e+03  1.7041100578251326e+03  3.3516619639086479e+04  7.3523589022493607e+03  4.2043519082935491e+03  9.8474450518407605e+02  1.9851293378964390e+03  5.0508188611144988e+03  1.2867137024358731e+03  1.7608958953356330e+04  7.5762617070310375e+02  4.8873072613832483e+04  1.8159802917893842e+03  6.5747900321085251e+02  6.8101724116156438e+03  9.2100896725416169e+02  1.4700369236417957e+03  8.2739108839306482e+03  9.2092050582249212e+03  3.1437813158409635e+03  8.3412536420593915e+03  1.0707166491973056e+04  2.0227768475359295e+04  2.7594650695406977e+04  2.5928939265324340e+02  1.6449551851777981e+03  2.5351982543125454e+04  1.5015310175054634e+04  9.9340592158809639e+04  1.8816180593464935e+03  1.9455820729847716e+02  6.0638341378729147e+03  1.3838527836680012e+03  7.3085720305753489e+02  2.9245000656627858e+03  3.3779450820583406e+02  2.4466767301629648e+03  3.6108664124461349e+04  6.0962040541692784e+02  1.1185711425706881e+04  1.1488122416356562e+03  5.1511630599424882e+02  9.6653924609268518e+02  8.8752198580195443e+02  6.2495118093622395e+03  5.3995594252312344e+02  1.2691101505675135e+03  2.9071886183447182e+03  1.8412629204940749e+03  1.6261649026696901e+04  4.2154681136097065e+02  1.2305876108936134e+03  4.6968757024897450e+03  3.2116089064927581e+02  8.0180278110100971e+03  5.6365112609404093e+02  5.7375196313028948e+02  4.0583735522790488e+02  6.0233632313030921e+02  1.1482738726249493e+03  8.6806427810758578e+02  9.2171984716029110e+03  6.0973294255205224e+02  1.0796975987305905e+03  6.3655606781518566e+02  8.8681129482864253e+02  1.7254073254926763e+02  1.3129591597167278e+03  1.7798923201948721e+03  8.1351697778733126e+02  2.9213494268166742e+03  3.6589270077566619e+02  1.9938610923029189e+03  1.9042272922477757e+03  1.1249889985149991e+03  5.8706219298691567e+03  5.2977387099828356e+03  6.4935268777221563e+02  1.2253690942471746e+03  4.0007869267465560e+02  1.7166092879350858e+03  2.3469555395212705e+04  9.4004213995470891e+03  9.3820954627566675e+02  1.2254743870359907e+03  3.0661855357701829e+03  1.3749630873087743e+04  1.0859514463762332e+03  5.4575050224279551e+02  4.9005016584631636e+02  7.2073878306600018e+03  2.1400474293074990e+02  3.0253826312231490e+02  8.0120359453914364e+02  8.1673179267607054e+02  6.2320876908111109e+02  2.3322321639529147e+02  3.2188393826764172e+03  1.1677062208730106e+03  1.9303339464975363e+03  8.1449026525653680e+03  1.4715572027645012e+03  8.3527855474396656e+03  1.8571670685269785e+03  3.0021175749976464e+02  5.0994060987828749e+02  3.4117720814535824e+03  8.1688132357660961e+03  1.6820457410641200e+04  1.7651694963368318e+03  4.3077728321593662e+04  2.7007086588217949e+03  4.9463957349478878e+03  1.9868630025520208e+04  7.6578631638153847e+03  1.7145931655551845e+04  3.4957865654354896e+03  7.7555140786157938e+02  1.9942579585587744e+03  8.0396764038365764e+03  2.1476730934789880e+03  2.9768622213758584e+02  2.3742297151344971e+02  6.7477496325071729e+02  2.0829667373719703e+03  2.5602030725035740e+02  1.7885805739195337e+02  1.5719613363635128e+03  1.3690370131012416e+04  1.8504940840781051e+03  5.5610466398481492e+02  4.1127538977756097e+02  8.4440888550702766e+03  1.8330953329582630e+03  2.3470296761882656e+02  5.7564406847321936e+02  2.3668320385114103e+02  1.2657335751305650e+03  9.3742448260201490e+03  8.1403069651066289e+02  3.3147694650791789e+02  1.9092817318056013e+03  3.7095470573189868e+02  3.8116376542912421e+03  4.0585042102972870e+03  3.4262027285784751e+02  1.7986359857736686e+03  7.4469809809578487e+02  9.3984106183241423e+01  2.1310977351811398e+04  1.0380545862817702e+04  3.1332830123090534e+03  2.6724371365532861e+03  1.3507938631156865e+03  8.0336417911413446e+03  5.5027523476978376e+03  5.4536141425966685e+04  2.7906203741582893e+04  1.4733151738873073e+02  1.0119459987345695e+04  1.9647695937055902e+04  2.4270642682842120e+02  6.0725520473006363e+03  2.7967863352482760e+04  1.3947152255534972e+03  5.8294252192281817e+0