<?xml version="1.0"?>
<VTKFile type="UnstructuredGrid"  version="0.1"  >
<UnstructuredGrid>
<Piece  NumberOfPoints="3167" NumberOfCells="6012">
<Points>
<DataArray  type="Float64"  NumberOfComponents="3"  format="ascii">0 1 0  0 0 0  0.25 0 0  0.25 1 0  0.25 0.5 0  0 0.5 0  0.25 0.25 0  0 0.25 0  0 0.75 0  0.25 0.75 0  0.25 0.125 0  0 0.125 0  0.125 0 0  0.25 0.625 0  0 0.625 0  0.25 0.875 0  0.125 1 0  0 0.875 0  0 0.375 0  0.25 0.375 0  0.125 0.3125 0  0.125 0.5625 0  0.125 0.8125 0  0.125 0.125 0  0.109375 0.4375 0  0.109375 0.6875 0  0.09375 0.21875 0  0.15625 0.90625 0  0.25 0.0625 0  0.1875 0 0  0.0625 0 0  0 0.0625 0  0.0703125 0.9296875 0  0.25 0.1875 0  0.175 0.21875 0  0.1686580882352941 0.6314338235294118 0  0.25 0.5625 0  0.1686580882352941 0.3814338235294118 0  0.25 0.3125 0  0.1846093920839711 0.457675742811065 0  0.1846093920839711 0.7076757428110649 0  0.06963315217391304 0.8580163043478261 0  0.07291666666666667 0.07291666666666667 0  0.15625 0.0625 0  0.1875 0.84375 0  0.0625 0.28125 0  0.1875 0.53125 0  0.07552083333333334 0.7552083333333334 0  0.07552083333333334 0.5052083333333334 0  0 0.5625 0  0.07552083333333333 0.3697916666666667 0  0.07552083333333333 0.6197916666666666 0  0.1824174313243159 0.7757901373513681 0  0.0625 0.15625 0  0.25 0.9375 0  0.1875 1 0  0 0.8125 0  0 0.4375 0  0 0.6875 0  0 0.3125 0  0.25 0.6875 0  0.1875 0.285625 0  0.1875 0.151875 0  0 0.9375 0  0.0625 1 0  0.25 0.4375 0  0.25 0.8125 0  0 0.1875 0  0.1349233842818192 0.4925919004742429 0  0.1335152562773358 0.7418878364720013 0  0.0594917385057471 0.5625 0  0.203125 0.09375 0  0.0546875 0.4225260416666667 0  0.0546875 0.6725260416666666 0  0.2019136658660413 0.338216765427811 0  0.1995020000924898 0.5853709998150204 0  0.134375 0.2572916666666667 0  0.134375 0.1802083333333333 0  0.0542280474742976 0.8055614981858166 0  0.1221934647393398 0.8655188450868867 0  0.04166666666666666 0.21875 0  0.15625 0.9583333333333334 0  0.203125 0.890625 0  0.206713569888 0.4132614932290299 0  0.2115463505317381 0.65625 0  0.2012310606060606 0.9393939393939394 0  0.201171875 0.0458984375 0  0.03999561774661511 0.7201937510074146 0  0.0399956177466151 0.4701937510074146 0  0.035784841954023 0.34375 0  0.120327818627451 0.6397058823529411 0  0.120327818627451 0.3897058823529412 0  0.109375 0.9557291666666666 0  0.04564950980392158 0.1118259803921569 0  0.1118259803921569 0.04564950980392157 0  0.08025380291005291 0.3238673941798942 0  0.1112651209677419 0.9105762768817204 0  0.03211805555555555 0.90625 0  0.03828125 0.96171875 0  0.04036458333333334 0.04036458333333334 0  0.03620912949997044 0.5250978305837619 0  0 0.59375 0  0.162109375 0.1044921875 0  0.03118139907916267 0.8408194304321051 0  0.1571963533457454 0.590400949253577 0  0.1587578894014007 0.3394119764183286 0  0.1506969975490196 0.4218175551470588 0  0.1506969975490195 0.6718175551470588 0  0.2070906355574324 0.2473574746621622 0  0.2070906355574324 0.1901425253378378 0  0.08465650753054846 0.1224380150610969 0  0.1114330859658678 0.08648358070079884 0  0.04054746717714226 0.5986883868529541 0  0.25 0.15625 0  0.25 0.28125 0  0.25 0.71875 0  0.2084391486333693 0.742535064766066 0  0.2077428895139916 0.4936107790279832 0  0.25 0.96875 0  0.03666712336686759 0.7684569195137533 0  0.1109703176434807 0.3503952932678546 0  0.1109703176434807 0.6003952932678546 0  0.1323450854700855 0.21875 0  0.25 0.78125 0  0.2086853046321041 0.8079956092642081 0  0.08000310162272527 0.465131759144696 0  0.08000310162272528 0.715131759144696 0  0.1018832642575987 0.1578918738938707 0  0.09479166666666666 0.2583333333333333 0  0.03867928291393143 0.3857193939186725 0  0.09132584216562684 0.7915703900993829 0  0.09224586925287355 0.5407758212513062 0  0.2116835102241899 0.3752677467682454 0  0.0414061843625662 0.6367966883181331 0  0.25 0.21875 0  0.08681832107843138 0.4047372855392157 0  0.08681832107843135 0.6547372855392156 0  0.1712610500122523 0.4982534075100398 0  0.1479279021104813 0.5302308042209626 0  0.1402758174771396 0.4566398871709348 0  0.1401770623234474 0.7063796751786664 0  0.2135607759365587 0.6194448537498545 0  0.07848715477520853 0.8937711976365836 0  0.09934508737030834 0.8377256696305275 0  0.07675624887614536 0.0340696230396066 0  0.03406962303960659 0.07675624887614535 0  0.1440082713785475 0.7789727266050902 0  0.1660139782670602 0.8111869039237365 0  0.07431640624999999 0.96572265625 0  0.25 0.46875 0  0.1698567708333333 0.03024088541666667 0  0.171875 0.875 0  0.03645833333333333 0.2552083333333333 0  0.08098262222381999 0.18607118888809 0  0.02997236128493951 0.143180277430121 0  0.25 0.84375 0  0.2154679739181572 0.5534390521636856 0  0.03645833333333334 0.1822916666666667 0  0.03632264025522072 0.3070202805104414 0  0.21875 1 0  0.1513741686550626 0.8442167313996213 0  0.2168133977813582 0.4459955487717956 0  0.2190131322531496 0.703125 0  0.1727093113888277 0.7413852578608228 0  0.1701041666666667 0.2542708333333333 0  0.1517708333333333 0.1488541666666667 0  0.2142163753799392 0.1278941869300912 0  0.1587267574490621 0.3048224010443303 0  0.2156942356037362 0.3061689288285205 0  0.1725364379972955 0.1836837968219244 0  0 0.28125 0  0.25 0.59375 0  0.09623775023237939 0.2930336745498909 0  0.21875 0 0  0.25 0.03125 0  0.1670095396165001 0.5580904353245775 0  0.21875 0.859375 0  0.25 0.90625 0  0.06770833333333333 0.2392406798245614 0  0.1360540015737478 0.9322916666666666 0  0 0.65625 0  0.2159715577099652 0.7752374751740043 0  0.03967280310556515 0.8734198626945593 0  0.1077910012998816 0.762797795345007 0  0 0.40625 0  0.1171150579179289 0.5198108382041321 0  0.09070664895503529 0.5740093301963526 0  0.25 0.53125 0  0.1411005024478043 0.365749143953847 0  0.203125 0.9716815370501894 0  0.1837945203686314 0.6744812093095998 0  0.2183170921236503 0.1602468982335675 0  0 0.15625 0  0 0.09375 0  0.09375 0 0  0 0.53125 0  0.03125 0 0  0 0.03125 0  0 0.96875 0  0.03125 1 0  0 0.84375 0  0 0.90625 0  0 0.34375 0  0 0.46875 0  0 0.71875 0  0.25 0.65625 0  0.25 0.40625 0  0.15625 1 0  0 0.21875 0  0.25 0.34375 0  0.25 0.09375 0  0 0.78125 0  0.09375 1 0  0.15625 0 0  0.1382501640128451 0.6146706181423367 0  0.1029032040920708 0.4879819075298724 0  0.1112825458828796 0.718954367531518 0  0.2169638964623854 0.5228330254530568 0  0.1405591976966633 0.03688248058223706 0  0.02974586925287355 0.5550688899717633 0  0.2160338230385579 0.2760842074590348 0  0.02581632758445363 0.7963003271249862 0  0.224971958664313 0.921875 0  0.06400137079623429 0.5337450614030229 0  0.2037965081545127 0.21875 0  0.1853048017546082 0.1225569867710261 0  0.02797756823289423 0.4122583915708087 0  0.03201311651072376 0.4416354471567994 0  0.02802337245342894 0.662104489389812 0  0.03186754112015969 0.6915905787012612 0  0.2261855508973228 0.953125 0  0.08036684492372444 0.6860917176336441 0  0.08036684492372444 0.4360917176336441 0  0.1802741037799466 0.4278105955407592 0  0.1778428819444444 0.08089192708333333 0  0.2205285078642384 0.06907401179635761 0  0.1088722606056869 0.1940083737915799 0  0.1367254622493273 0.2860909589983134 0  0.06842073158759261 0.5920268866576984 0  0.184988977893691 0.9143419336810731 0  0.0418402777777778 0.9332465277777777 0  0.1871006213226104 0.6104250062100378 0  0.07985644640444792 0.8173374306235633 0  0.04732923247576441 0.4982821258888622 0  0.06611853992436414 0.780911006716439 0  0.2273935668277038 0.828125 0  0.1858696187385389 0.3143428712429033 0  0.1140892094017094 0.2390357905982906 0  0.1877922691669536 0.3617539661943096 0  0.05758674846768909 0.8333647569007363 0  0.1352608290824233 0.09973815947057559 0  0.1517706243282904 0.2004488161476693 0  0.1449695316901515 0.8810785158450758 0  0.09462378205504757 0.8708015690781575 0  0.227445339911385 0.578125 0  0.05745737992792876 0.4499181399758709 0  0.05780649493506441 0.7003314350163611 0  0.1187818739346447 0.7868226346316679 0  0.1745466635354981 0.9389032027907473 0  0.1256305258840564 0.838799819642297 0  0.06770833333333333 0.2124471236358035 0  0.02083333333333334 0.203125 0  0.140625 0.9791666666666667 0  0.1766821659552516 0.975561292200228 0  0.1620783318872163 0.4727483267075381 0  0.1536725427350427 0.2339082512469609 0  0.1617771474337578 0.278952823831228 0  0.02741604996872549 0.281090803289549 0  0.06183906994143391 0.3975310989925237 0  0.2268982540772563 0.2305832481508689 0  0.2294261974844445 0.203125 0  0.02083333333333332 0.234375 0  0.2223182091346154 0.02768179086538462 0  0.09616947414406221 0.7398115542262675 0  0.1053409896466572 0.4626386355124552 0  0.08648552069711524 0.09585218346816277 0  0.2272083926866681 0.3301067571674309 0  0.1294244353979274 0.06623776300617727 0  0.1263039818717184 0.1504857241294106 0  0.1149927180695202 0.2733691199751007 0  0.06199131875595188 0.7334062158692485 0  0.02625450755792898 0.7434924481572176 0  0.01945983991027112 0.484375 0  0.2275111354177403 0.3554598004473978 0  0.1921314999800934 0.3920320902063825 0  0.2289470153175877 0.4243266814421967 0  0.1870247299647788 0.6491605463078544 0  0.230773175265869 0.640625 0  0.2257840012722039 0.6780142623324342 0  0.2307273932539546 0.109375 0  0.2269693349086677 0.8972169952739968 0  0.1953125 0.8671875 0  0.162762385654881 0.6943720653954724 0  0.161588388430844 0.4440475151025772 0  0.2309500035219089 0.390625 0  0.2299311249500424 0.7955318348720017 0  0.02413306936009103 0.09948394181876646 0  0.09948394181876646 0.02413306936009104 0  0.1330536118107118 0.3370263238470877 0  0.1248085171568627 0.6658847783905228 0  0.1248085171568627 0.4158847783905228 0  0.1449811166772675 0.6384219919056187 0  0.1453180229233392 0.3903903978433153 0  0.09683485463150776 0.3822000850447938 0  0.09683485463150776 0.6322000850447937 0  0.223427517855915 0.4719270744719414 0  0.06546557658678889 0.6423413858921275 0  0.02224001017440792 0.5800747442977685 0  0.05437297849869319 0.3256533714011888 0  0.06877150140910145 0.3458900515631618 0  0.05106406938652892 0.3637940165204562 0  0.19179503104
[...]
<PointData  Scalars="flx"> 
<DataArray  type="Float64"  Name="flx"  format="ascii">1.0361692102770496e+02  6.9267861259967054e+00  6.8906879917229116e+00  3.3290980759827119e+02  4.5589121046667015e+02  3.3901868337615720e+03  3.4528764895579894e+04  1.7719635797440662e+03  3.4288635751531081e+02  5.3693958319533394e+03  9.2237715737351152e+01  2.3483625204916098e+02  2.0782972744784746e+02  1.4457331199480856e+02  3.6979933509567595e+03  1.8049067463684851e+03  1.1595047361041001e+02  2.2948174595208042e+02  3.7335443082068946e+02  2.1225782734822320e+02  6.7610763766558921e+02  3.2772886247608966e+02  4.8557000803420590e+02  1.2024995763130571e+03  1.5299557882742636e+03  1.0753338232345635e+04  5.4761998267527224e+02  1.2217503491386760e+03  8.0508184614676551e+01  4.6469387930545818e+03  3.8666285752886019e+01  3.3608672757009138e+01  1.0833421763309098e+04  8.7811349353271794e+02  1.6375373183831000e+03  1.8918355518266155e+04  2.4723172884712523e+04  1.5646978204605123e+03  6.2394337981765739e+03  4.0626471582821732e+03  4.6130462274665638e+02  6.7034862978940428e+03  1.1164961671843828e+03  1.1827419126096981e+03  3.4310589070855698e+04  9.3694266661800852e+04  9.9853866096454112e+03  6.9429097387609008e+03  9.9822694195481563e+03  4.6593357797115470e+02  1.1535117784800550e+04  7.7404515740941588e+02  6.7179007968711212e+03  6.9754039985889714e+04  2.3353978497789458e+02  1.4481438381240255e+02  4.9102637950009139e+03  1.7604774270175963e+02  8.0589835970692984e+03  3.4984232925313890e+01  1.5224244954213136e+04  2.5449153784060675e+02  6.5835899754690499e+03  2.7234682482752481e+02  2.3614805065882331e+02  3.8786672526606378e+02  2.6490681872165601e+02  9.9152417634272524e+02  2.2328347051907556e+02  4.3988423407944492e+02  3.5054725309757341e+04  1.3701284932777447e+04  1.5053683100936135e+02  2.8945588872396333e+03  1.0764017569811491e+04  5.7045415819627433e+03  3.1078369971770957e+02  5.3243107963403224e+02  4.2690929606691852e+03  3.2181842477857140e+02  8.0793561403789045e+02  1.7617135220838911e+04  4.1045868032338112e+03  4.8168742618178992e+04  3.4722023113662539e+02  6.5327984265076539e+03  1.5553926970078232e+03  1.0378458353308671e+05  6.4624465207607673e+03  1.1520675799305203e+05  3.0713182805341813e+02  9.5102590794640219e+02  6.0415855100742056e+02  3.1581226895068306e+05  1.3280467110743843e+03  3.1242415581517657e+03  8.6377962553628731e+02  3.8877772311534427e+04  9.4995826072791424e+03  3.5069295181687858e+03  2.1520771624324725e+03  4.1768097006404599e+02  1.3193877036321385e+03  3.3540175666552528e+02  4.4898428685075390e+02  1.1948819502569729e+03  4.1689123007950802e+03  2.6340555504917234e+02  5.5049891951605270e+04  8.2930105386326329e+02  2.3290016902973068e+04  9.0898746874780591e+03  1.2416079956314718e+03  5.7442362921878532e+02  5.4536283753678526e+02  9.2722213704492106e+01  2.3324396979624948e+04  1.1284138041126744e+03  6.6725193721581469e+04  1.2345982762867213e+03  8.2600279334515999e+03  7.7267035007373988e+02  4.1281882827744874e+02  4.2134141104680788e+02  2.2775161895835176e+03  3.5138852952684028e+04  1.4421999458052209e+04  3.0507816713371676e+03  4.9960930569656457e+03  1.0670571099123031e+03  4.4580855948569712e+02  6.7955679230064243e+02  1.2272004884722853e+03  8.9470095881888710e+02  9.3026047822938745e+02  8.6159021718756640e+02  3.7631815319090028e+03  2.8252340677131616e+02  9.1228839103493319e+03  2.0728947573336549e+02  4.0556711453934003e+02  2.3388978752839917e+04  3.1544366344258462e+04  1.4738372408895677e+04  6.2482338004517806e+03  3.4109182085727762e+03  7.3282425176925483e+02  1.1434347942152692e+03  1.1713835214120070e+03  5.3935888782640668e+03  5.7757024009963936e+02  1.3402363149876364e+03  4.1386967509856113e+03  2.5513575938637186e+04  6.9444595761591040e+02  5.8092506432862530e+04  7.1006090630262188e+04  5.2851004049434061e+02  6.5297575596339323e+02  2.9122625714610382e+02  8.4797261961861950e+03  1.5044824560045785e+04  4.0679950099435691e+03  6.8519503006516898e+03  1.5883971620335142e+04  8.8347281983739667e+03  8.0429180770608233e+04  1.1019822961184068e+03  7.6118558539182295e+03  5.5960713544893383e+02  4.5435144984248800e+04  1.0040233240004127e+04  2.5002289267404234e+04  8.3136987256472239e+03  1.0178979250511749e+03  7.0446199028850299e+02  4.5077317312609994e+04  8.8759969523104076e+02  3.0671584976518329e+02  9.1866980461115793e+02  4.1723300327785091e+02  5.6916451011755098e+03  7.5931343236884913e+03  3.5965977452985244e+03  1.2445513991673256e+03  1.9812507459862326e+02  1.3752438839737408e+04  1.3489943697915328e+03  2.4508685502581255e+02  7.8731181680467518e+04  3.0895746985181736e+03  8.6139144377621017e+02  3.8911218842511704e+02  1.1666957683581207e+05  1.3899489916076570e+03  7.0022446834751216e+04  2.0936135341379568e+03  3.1956013604375526e+03  1.7044943222847037e+03  2.0463188765863575e+02  3.4140477080983578e+02  2.8416393991058896e+04  5.4695560480789871e+04  9.0492667700407619e+03  9.5939052905759774e+04  3.0806207367080094e+02  3.3387536997311649e+03  8.8530348006523226e+01  1.7267749758979587e+03  5.6471104122638579e+01  1.9677716707168022e+03  1.0576753020007807e+04  6.2538814057040909e+01  2.8114086944598006e+02  3.4512655064777255e+03  2.3638931952640905e+03  2.7609948042666119e+03  9.0632211638881301e+02  1.6190410224886060e+02  1.4191488003595735e+05  8.8312639030923983e+03  3.6272288540666063e+03  1.8603648666174934e+02  2.4846068995161568e+03  1.3910635628219752e+03  4.7943576567677210e+03  3.3222409181722747e+02  1.0225213934633775e+03  5.5958407720915511e+02  9.9722840006417664e+03  1.4345790052514019e+04  7.2694049328850933e+03  7.0277335946286860e+02  1.2584493397380527e+04  1.5091731539213382e+04  1.5332010784955466e+02  4.3659103950389817e+03  6.2259117496309523e+02  9.1048917879735036e+03  4.9163742073899607e+02  1.3207611454978096e+03  5.0431669254812703e+04  3.2850725579622457e+02  2.8387907658167671e+04  2.0492971282720277e+03  1.3322768329309893e+04  2.5550833153156937e+03  6.4975077307165441e+02  2.0074409789916481e+03  2.3342577867114980e+02  3.4915340616019108e+02  1.3423735505616705e+02  2.0796818936658389e+02  3.7382145087806957e+03  5.9560594267535798e+03  3.0681122712645829e+03  2.9106838951363778e+04  3.1150684767110727e+02  1.2639305581199722e+04  5.6964311198046039e+02  7.8645191983740574e+02  1.1094864156783672e+03  1.3532856824032955e+04  2.9582383359145027e+04  6.5737874356768134e+02  3.2439583914140480e+03  1.5868540711591984e+03  1.2255011203243675e+05  6.0892897650121758e+03  2.8508098154084860e+03  9.0266013221674330e+03  4.5352574626344068e+02  3.1657619779531728e+04  1.4386526587409333e+04  4.4626508835211225e+03  2.7119391549848860e+04  2.4416169844416603e+04  4.0364132845483624e+02  1.5128437223855894e+02  3.7775905225325988e+02  9.0939254367167068e+03  1.9231230051303353e+03  6.3074544262857293e+04  2.0318633912261004e+02  6.6500714188822803e+03  3.4398829155077161e+04  1.2244190460785517e+03  5.7334478651964469e+02  2.5957237892557248e+04  2.2355491735072932e+05  3.7788105085281632e+02  1.6242152311825193e+04  4.6327899708334320e+02  1.5928636780053998e+03  2.2462038445754483e+03  3.3444361530135046e+02  2.1527148694757471e+05  5.6159488895185154e+02  3.0483829317361295e+02  1.0488381190588493e+03  2.9352247925349860e+02  4.6701224892788268e+03  3.9108807957793658e+02  2.8463432660270428e+03  2.7994015455166527e+02  6.0148920581528791e+03  4.2218445308332321e+02  4.0313417914796077e+02  1.8805716347242392e+03  2.5748734982326208e+04  7.0955282164807446e+04  3.7390936346604035e+03  5.8469206765951285e+03  3.0571541397340939e+03  1.1634015444026509e+03  1.6397999762295230e+05  2.7802380278870623e+03  1.0066500166167839e+03  3.3834381290711251e+04  3.4015340806237123e+03  4.0109752755774485e+02  3.4713814190673904e+04  9.8626423751793518e+03  2.5940652336889057e+05  6.5642178978862273e+02  1.2881384223911320e+05  8.5710710476339023e+02  1.6192746647090510e+03  1.4217783509945732e+03  1.1655125876959932e+04  6.0505413680957156e+02  2.8266015005874022e+04  2.2608474505960326e+03  1.1610682688900861e+03  1.7233498478220997e+03  1.6488052551896828e+04  5.2885949554893603e+04  3.4975313073028206e+04  7.6857500184643686e+02  1.0666448623785013e+03  3.6535681905023415e+02  1.2475393044189252e+03  8.7326965252889602e+02  2.1404171608153551e+03  1.2336126050121497e+04  2.4265670521972761e+03  1.5995832752008595e+04  1.5808997171168096e+03  2.7176597158340155e+02  4.7363549680674269e+03  4.8803653269372862e+03  1.8437062835625857e+04  2.3118981675442395e+05  4.8035792273521218e+02  3.2146226247865952e+03  2.0733831397570553e+05  3.4784424136884052e+04  3.5741361053844980e+02  2.3111604097621216e+03  1.1035664633013921e+03  4.6461941597702862e+03  1.0696409290914111e+04  7.8077517045054299e+02  2.0568435887407421e+04  8.1649040411094087e+04  5.6059396760050504e+03  4.2583918377946094e+02  4.1716006933327408e+04  6.1309810166199702e+02  3.4769687504956903e+02  5.1151302720494004e+03  1.0921702786158037e+03  3.9469726617406025e+02  4.9822926868698250e+03  1.7702940934232422e+03  5.7786756880707717e+03  6.9903603984689641e+02  5.9834724754716754e+03  7.8565826634644618e+04  1.0063070826599882e+03  1.4959073201380195e+03  3.2673910786733049e+04  7.3280616527578977e+03  8.9377208452723698e+03  3.1081557305485751e+02  2.3425891041456166e+03  8.4230439609047710e+02  1.0264876566053599e+03  7.3274004736778545e+02  4.7564074996100595e+02  3.1898793698998637e+04  1.3668221465701736e+03  1.9862253612146909e+04  1.5723750162621029e+04  1.6469370487527917e+03  1.3747834615790046e+03  7.4640049782404640e+03  1.8840069625583346e+03  1.4945790557292019e+04  6.8324571922208725e+03  1.1827502695361374e+04  9.5752050558952328e+02  1.5960428642073193e+03  2.7343356212688486e+03  2.5450511193429338e+02  1.1015709333863886e+04  4.4677191927123764e+04  2.2677321765870906e+03  7.2900818204686348e+03  1.5080403586889809e+03  3.5292472363310662e+03  3.1093935491045468e+03  1.9656995013406115e+03  2.9237904697641217e+04  6.5995719433765839e+02  2.7052605343330346e+04  5.3025896711250675e+02  1.2177117114814699e+04  2.6930730181076951e+03  1.1459204265614360e+03  8.8093205101285764e+02  2.3510420449647936e+03  7.0536815489052497e+03  4.4749384115110210e+01  3.1665191209508095e+02  2.6426852242291438e+03  1.1597176335294096e+04  3.1157632806221369e+04  3.6301645476672320e+03  5.0959381741175248e+03  1.6844023600130924e+03  2.3859751012194860e+02  7.6236445278835872e+03  8.5274682436616768e+03  2.0034883385734069e+04  7.7968370327968487e+03  5.2511381509672528e+03  1.3321191446608595e+03  1.1666034861680280e+04  7.9996591735104175e+02  1.2100184140284224e+04  1.1720135276716076e+03  1.8662912258068156e+03  4.2268513593131847e+03  2.2854035723751917e+02  1.3907208137168998e+03  2.2788200018302523e+03  1.5418188698325312e+03  9.8157789165547292e+03  8.3102463281279677e+02  1.4683655054149849e+03  4.5879353649716182e+02  6.7200880101367306e+02  3.5389670611060988e+04  3.9524667515057718e+03  1.0055736739696671e+04  1.4586306209533680e+02  1.5263388725155469e+03  4.2409765454825668e+02  5.5522433590751734e+03  2.6015744445150176e+03  8.1837336724369488e+03  1.3412078424549381e+03  9.4096444279971172e+02  5.1976647721522696e+01  5.0631188391783953e+03  3.3112768668559661e+03  2.4402140157883423e+03  2.3553256262364339e+04  1.7247500618607199e+04  1.0878791542784612e+02  6.2458121158716858e+02  7.0744218767125074e+02  6.1892777954973076e+02  1.8273898354379976e+03  7.7831716325122864e+02  4.8125539191347343e+03  4.5398228467486410e+02  3.3347223845545348e+04  9.3261535765499161e+02  1.8432539602569520e+05  1.5045482749509906e+03  6.2842591207272044e+03  1.5399207985723581e+02  1.8612636366974380e+03  6.0911320322803044e+02  2.1966663972486259e+02  5.7525454625645023e+02  7.7411998179496823e+02  4.2862521250313708e+04  1.3397646479641146e+03  7.7027084482871151e+03  1.2726215998563544e+03  1.0553449352452652e+04  6.5055808520945573e+02  5.8427159426691051e+03  7.1976874705003320e+02  4.6497153216336692e+03  4.8006524725423305e+03  7.4876117071531098e+03  2.6023026388124606e+02  2.3061123611767343e+02  7.6107528140142904e+03  4.9588380795254352e+03  3.9557004405460430e+02  2.5904004983021910e+03  1.0715813485355729e+04  1.0540045455261759e+05  2.4902203788892198e+03  9.7143610911314909e+02  9.5962060145520809e+02  2.1337774599838198e+02  1.2643504895652425e+03  1.1167153468036472e+03  1.0240447167694988e+03  2.1084251180636529e+04  3.8422339376752457e+03  7.5299644303948035e+03  2.3826498476408246e+03  1.4217871095868002e+04  2.5795486538303692e+04  1.2593645428404859e+03  4.6151763373675340e+03  2.0551202212550911e+03  3.0367869867520323e+04  4.2589932014691622e+04  3.5335883019459225e+03  1.3882516036184470e+03  1.8085131112023508e+04  1.0000675840229168e+03  7.9623563854132208e+03  6.4210987421485413e+02  6.6659177814527429e+04  1.3270321595864117e+05  7.3350608872234579e+03  6.8389268423334715e+03  2.6609433805434838e+02  2.6195583519498952e+04  1.2018817401006838e+04  2.0624866857111269e+03  4.5606257266478019e+02  2.7302449780213789e+02  5.0592740917501374e+02  8.4990344423163674e+02  1.6057057753950357e+05  3.7081096979506679e+03  7.5872711032060215e+02  1.1386813819199208e+03  5.5502276129482334e+02  4.5362529888404367e+02  7.1167661935947317e+03  1.7815474969856971e+03  8.5019021733276793e+02  9.0533237637047375e+02  3.4936950221237166e+04  9.8316526864963322e+04  1.8739872666020804e+02  2.1865426868376671e+04  1.9341957699102433e+04  5.0789853693331054e+02  1.8147410396309915e+03  3.4227764281088428e+04  1.0537864719012821e+03  5.6627268383262657e+04  7.0553291786153102e+02  1.9065713478344715e+04  4.8172670191838530e+04  4.4620990516186379e+04  4.0006811374763570e+03  3.4031041473430146e+03  7.8998160795890377e+04  1.4480057848669869e+03  8.6381164299831721e+02  2.1276215151187492e+02  1.0290091440173865e+03  3.7730605586542642e+03  1.5212288496858257e+04  2.7491854299585724e+04  2.9553238746091642e+02  6.5601059844958104e+02  5.6239547795964045e+03  9.4171878991220219e+03  1.1677056088848947e+03  3.1262329622934707e+04  2.1397978292561020e+03  3.4577457745609820e+04  1.7377204852641339e+02  5.8184440413023162e+02  4.0963171129512884e+03  2.9616440312294918e+02  3.5936091711251097e+03  2.4979201465886181e+04  9.2547400002533607e+02  1.0258989140570602e+03  2.6903172092749537e+03  3.6177002106115413e+02  1.0658812377985167e+05  1.5982604234093483e+05  1.5806518810639960e+04  2.4386415992671773e+04  4.7975048615105798e+03  1.3704827045101804e+03  8.2004907240785053e+02  3.9539937238370726e+02  1.5673283955247275e+05  2.1286654848334392e+03  3.6229973870107278e+02  3.6124119789314079e+02  3.8779326095182810e+03  6.1101745750907712e+03  3.2082943949975385e+02  8.0222510388826561e+02  2.9630198054452889e+04  2.3015542105475842e+02  2.3317194724136561e+02  8.0245501162534447e+02  7.8687296540197458e+03  9.9717245709090344e+02  4.5082551227828594e+02  8.5049860534592604e+04  3.4625400866033777e+02  1.0346063436203708e+03  2.0222406062657997e+03  1.9473497711042239e+03  1.1247779345552790e+03  5.3556905050724135e+03  2.5927453625276667e+03  1.6088820935992788e+02  2.6137792676860816e+04  3.4320208395677997e+02  4.8506768142352593e+02  3.0117217397860786e+03  2.7965494366112445e+04  9.5100970003951825e+03  8.9401559369133993e+03  6.0033565385853842e+02  9.2607102611447808e+03  8.8113241107875001e+04  2.9350130112099996e+03  2.0823194725527133e+04  1.3007056099061791e+04  5.1497411629047656e+03  1.9108569194805827e+02  1.0659921577360238e+05  1.3515044812631266e+04  4.1779971225928803e+03  4.3452272223738873e+03  6.7713054177234531e+04  8.1543601207601773e+02  5.9589797225683833e+03  1.2836588534580113e+02  9.5458473734077018e+02  1.1642208776002421e+04  1.6294135892857735e+03  1.1924405622745358e+03  1.3591007823697391e+03  9.5193778976927561e+01  9.8135078403880561e+02  8.1022377940937361e+02  2.6383619056558973e+02  2.3843921880849237e+02  1.4629007742957522e+03  2.8553289804428673e+03  1.2180775388447121e+03  1.9063532121732292e+03  8.2439062035314987e+02  1.2099845952814474e+03  4.0537060320129416e+02  1.1232355829965170e+04  7.2511716658757609e+02  2.6383031991252301e+03  8.8277782671764453e+03  3.2907564403860915e+03  1.9031692960816162e+02  2.7635208667518753e+04  2.6020924865767411e+03  2.1362934141563639e+02  2.7349687523284060e+03  1.0730114910809378e+04  2.1748318453708030e+03  8.8562479345004704e+03  1.5076308318106604e+02  3.6479334666416921e+03  6.0735570848798261e+03  1.7147754297011928e+04  2.8466999499788766e+04  1.9358849380311565e+05  7.8077251802854771e+03  1.1871331561579395e+03  1.7999277001559328e+03  1.7772679448315703e+03  4.6417214944156711e+02  1.6133879046415578e+02  9.7779319865609476e+04  3.6911443660837062e+02  7.7286482667585017e+02  1.5545171009573221e+05  4.0963948669425059e+02  2.7736651745380777e+03  9.7613023047460738e+04  2.4051141815313355e+02  4.8620280302921725e+04  4.9962387887832720e+03  1.5586770130322297e+04  1.9797302246426775e+03  1.3783321274197388e+03  7.0619069941004398e+02  3.1444574491743515e+03  6.2631712095431760e+02  6.9785677865438373e+01  2.8388865237268334e+02  8.0449753797997982e+02  3.3513287218325502e+02  2.8817225951482419e+02  1.3594834923875110e+03  5.3433632397064855e+02  2.7030566440695128e+02  4.3524696076168243e+02  4.5727821946754023e+02  1.1189153962081093e+02  1.0522711792445300e+03  1.3633316784042241e+04  7.7284816641233210e+03  2.5213986883238990e+03  7.2731334326603090e+01  3.9265710457369241e+03  1.0110600166296970e+02  7.6873669346200487e+01  2.6780157220222912e+02  2.5918001247010281e+04  5.4528368351025340e+04  6.9412149388849029e+03  4.2356184539272952e+04  1.0505459668991734e+04  4.5931919097539924e+02  1.6532233433727456e+03  5.1692061083319240e+03  1.3248543093653368e+03  9.4119320405415965e+03  3.4448862037638389e+02  5.0490465643635280e+03  7.7723641625220989e+02  5.9772155485031942e+02  1.3473760334526955e+02  2.5867857789724289e+03  4.1348238697056144e+02  1.9286647470117248e+03  1.9256588066634868e+04  2.5513015093692075e+03  2.8313515657492649e+03  1.6417897514698618e+02  3.3627452048020964e+03  1.2059770245460422e+04  4.7367139189181125e+03  9.0476651132204552e+02  3.4048617766676466e+02  3.2822529824891507e+02  2.4208457415394815e+02  1.6066046506363170e+03  4.5971250268546669e+02  8.3894702807717772e+02  1.8902791882621026e+04  2.6969809152304373e+02  2.6018323884385802e+04  1.1298048836292635e+04  6.7003417289421695e+03  2.4358511014345540e+03  2.5078440564006509e+04  2.9604740841205569e+02  3.0290352255786269e+02  4.9902907975817514e+04  3.9259806017850624e+03  1.3772917533764801e+03  4.5590393641068084e+04  2.8203742439232497e+02  1.6171810584273512e+03  5.1143663373781988e+02  4.1128086434053739e+02  2.7071120148432743e+02  3.4414720328670828e+03  1.3699059207985036e+04  4.2547467496487445e+02  2.4568639862519785e+03  2.9964255893889313e+03  3.1959423032181626e+03  3.0937202598996430e+02  1.7389049513847124e+02  2.2604858822580372e+03  1.7378136432417926e+02  2.1987857275179104e+05  2.1518174574835630e+03  8.6532180813115720e+03  1.7052589174076227e+04  7.2702985057335973e+03  1.5100030139127362e+03  4.2911211999362303e+02  4.3805840972488988e+02  4.7771154459825029e+03  5.0288490817323735e+04  2.0374409604261682e+03  7.6247748241939030e+02  1.1369520022633844e+03  3.5602202036089088e+03  1.0684972582214925e+04  7.5534828681174149e+03  1.7918860472845143e+04  4.4073466839213943e+03  1.1167203458259235e+04  3.2524583021802800e+02  7.8187070096760735e+03  2.1836700484728038e+02  6.0596643042459368e+02  2.6717239502847929e+02  4.8079474420441429e+03  5.1628401728497238e+03  4.9681047647216647e+03  2.7839108596381429e+03  1.8337510717525840e+03  4.3393968261307765e+02  3.2263860172478180e+04  9.3382341112175800e+03  2.2296779964318350e+04  9.8873349187340887e+02  4.0777556191348845e+03  3.9450942324759567e+03  3.3331887239798391e+02  3.5756064342142640e+03  1.7425028105644080e+02  1.1061908667026757e+03  1.1480904515827849e+0