<?xml version="1.0"?>
<VTKFile type="UnstructuredGrid"  version="0.1"  >
<UnstructuredGrid>
<Piece  NumberOfPoints="25605" NumberOfCells="50056">
<Points>
<DataArray  type="Float64"  NumberOfComponents="3"  format="ascii">0 1 0  0 0 0  0.125 0 0  0.125 1 0  0.125 0.5 0  0 0.5 0  0.125 0.25 0  0 0.25 0  0 0.75 0  0.125 0.75 0  0.125 0.125 0  0 0.125 0  0.125 0.625 0  0 0.625 0  0.125 0.875 0  0 0.875 0  0 0.375 0  0.125 0.375 0  0.125 0.3125 0  0 0.3125 0  0.125 0.4375 0  0 0.4375 0  0.125 0.5625 0  0 0.5625 0  0 0.6875 0  0.125 0.6875 0  0.125 0.0625 0  0 0.0625 0  0.0625 0 0  0.125 0.8125 0  0 0.8125 0  0 0.1875 0  0.125 0.1875 0  0 0.9375 0  0.125 0.9375 0  0.0625 1 0  0.0625 0.78125 0  0.0625 0.09375 0  0.0625 0.65625 0  0.0625 0.53125 0  0.0625 0.40625 0  0.0625 0.21875 0  0.0625 0.90625 0  0.0703125 0.71875 0  0.0703125 0.15625 0  0.0546875 0.46875 0  0.0546875 0.59375 0  0.0625 0.3385416666666667 0  0.0546875 0.84375 0  0.05338541666666667 0.2786458333333333 0  0.046875 0.046875 0  0.078125 0.953125 0  0.03125 1 0  0 0.96875 0  0.09375 0 0  0.125 0.03125 0  0.0375 0.953125 0  0.08749999999999999 0.046875 0  0.125 0.28125 0  0.08857717803030302 0.296875 0  0.08456307870370371 0.2527488425925926 0  0.08432904411764705 0.8157169117647058 0  0.125 0.78125 0  0.08432904411764705 0.4407169117647059 0  0.125 0.40625 0  0.04067095588235294 0.1842830882352941 0  0 0.21875 0  0.04067095588235294 0.7467830882352942 0  0 0.78125 0  0.04067095588235294 0.6907169117647058 0  0 0.65625 0  0.04067095588235294 0.1282169117647059 0  0 0.09375 0  0.09230469604198556 0.4788378714055325 0  0.08432904411764705 0.5657169117647058 0  0.125 0.53125 0  0.09230469604198557 0.6038378714055325 0  0.09230469604198557 0.8538378714055325 0  0.125 0.21875 0  0.04036458333333333 0.3723958333333334 0  0 0.40625 0  0.125 0.34375 0  0.09223090277777779 0.359375 0  0 0.34375 0  0 0.71875 0  0 0.15625 0  0.03125 0.640625 0  0.03125 0.234375 0  0.09375 0.921875 0  0.03125 0.796875 0  0.09375 0.765625 0  0.03776041666666667 0.8776041666666666 0  0 0.90625 0  0.03125 0.421875 0  0.03776041666666667 0.5026041666666666 0  0 0.53125 0  0.08723958333333333 0.1223958333333333 0  0.125 0.09375 0  0.03125 0.546875 0  0.09375 0.515625 0  0.08723958333333333 0.6848958333333334 0  0.125 0.65625 0  0.08723958333333334 0.1901041666666667 0  0.09285237672216495 0.6388297534443299 0  0.09120871566215796 0.887895068675684 0  0.03697337403288202 0.3117847356544165 0  0.03125 0.078125 0  0.03125 0 0  0 0.03125 0  0.125 0.96875 0  0.09375 1 0  0 0.28125 0  0 0.46875 0  0 0.84375 0  0 0.59375 0  0.125 0.15625 0  0.125 0.71875 0  0.05859375 0.625 0  0.09203062351730669 0.3280299106084038 0  0.125 0.84375 0  0.125 0.59375 0  0.125 0.46875 0  0.09375 0.4106043198529412 0  0.09375 0.2226289308756895 0  0.125 0.90625 0  0.03125 0.9082327178030303 0  0.09375 0.0917672821969697 0  0.03157790017660633 0.3424870324872683 0  0.02669270833333333 0.2643229166666667 0  0.06829273545144836 0.4982032167254387 0  0.06675762813866792 0.8709439182360006 0  0.05576041429493017 0.2497890636858682 0  0.02734375 0.609375 0  0.02728074596774193 0.5779989919354839 0  0.02734375 0.453125 0  0.02734375 0.828125 0  0.09765625 0.734375 0  0.05493844330495356 0.4393276533475232 0  0.06816449879002234 0.7535164975800447 0  0.05493844330495355 0.5643276533475232 0  0.05493844330495355 0.8143276533475232 0  0.0299965987454304 0.71875 0  0.02999659874543037 0.15625 0  0.0813426135756993 0.3853350519425603 0  0.09765625 0.1637369791666667 0  0.06467653953877486 0.310910294982067 0  0.02169857614656033 0.203125 0  0.02524899995375509 0.1051854999075102 0  0.09975100004624492 0.5426854999075101 0  0.09975100004624492 0.7926854999075101 0  0.02524899995375508 0.6676854999075101 0  0.0216985761465603 0.765625 0  0.04823956951149876 0.928748603739466 0  0.046875 0.9782291666666667 0  0.0671875 0.06614583333333333 0  0.078125 0.02177083333333333 0  0.02127436155913977 0.390625 0  0.1006667715324385 0.7079051314317674 0  0.02433322846756151 0.8545948685682326 0  0.02433322846756151 0.4795948685682326 0  0.06536484344506666 0.3645784953935692 0  0.1057502727878818 0.265625 0  0.09765625 0.97265625 0  0.07158549886191198 0.9769868329539707 0  0.02083333333333333 0.046875 0  0.046875 0.02083333333333333 0  0.1015625 0.9453125 0  0.105773175265869 0.578125 0  0.105773175265869 0.828125 0  0.1057731752658691 0.453125 0  0.02403140427485829 0.9326371297403401 0  0.03105806221105027 0.2882216937203155 0  0.02269345238095238 0.02269345238095238 0  0.02265857126276695 0.9773414287372331 0  0.1023414287372331 0.02265857126276694 0  0.1050021911266925 0.1399031244962927 0  0.1004761981537389 0.6631336343087164 0  0.01789242097701151 0.515625 0  0.1053197095586611 0.3892428214300389 0  0.1071947968863412 0.203125 0  0.06483609068627451 0.1801470588235294 0  0.06307444852941177 0.1182598039215686 0  0.06307444852941178 0.6807598039215687 0  0.07134406133247276 0.9276243773350545 0  0.107023448305187 0.110594895408122 0  0.01797655169481303 0.8894051045918779 0  0.0896290604425302 0.06945979794392823 0  0.01643913299282548 0.359375 0  0.04012690145502644 0.5255663029100529 0  0.07724934918388508 0.2756598204935206 0  0.04333510829975742 0.3946172288681074 0  0.04382482319049504 0.7689316254597454 0  0.04078217840056862 0.2143768568011372 0  0.01872387163348762 0.3244028916671824 0  0.0195742471369305 0.6987325881931771 0  0 0.734375 0  0.0195742471369305 0.1362325881931771 0  0 0.171875 0  0.125 0.078125 0  0.02106088043659297 0.7382013359382263 0  0.02106088043659297 0.1757013359382263 0  0.0497677502679564 0.1647704182208795 0  0.1041623508625682 0.2422658327302558 0  0.125 0.421875 0  0.1039703258643078 0.4303318325659762 0  0.05877296560275284 0.7012639504860959 0  0.0501545493727152 0.727123133991979 0  0.06896549282708588 0.8291595335799418 0  0.06896549282708588 0.5791595335799418 0  0.05561978654147531 0.1989614820041244 0  0.07032296246331207 0.4254414436261769 0  0.05877296560275287 0.1387639504860959 0  0.06896549282708585 0.4541595335799418 0  0.07859817667287269 0.7952004746267884 0  0.07859817667287269 0.5452004746267884 0  0.1054638298647563 0.05657430832458488 0  0.0578125 0.9598420210926695 0  0 0.953125 0  0.0671875 0.04015797890733056 0  0.07649432244045254 0.2338267641856086 0  0.04866265018175087 0.3532402205496085 0  0.04529605546323741 0.670940902672186 0  0.04529605546323739 0.108440902672186 0  0.07114475473057193 0.6075619837836785 0  0.1053722369453574 0.2857608974857906 0  0.1041142204473487 0.3109216152144918 0  0 0.296875 0  0.01867881746150348 0.3038534200233671 0  0.05524134160257502 0.5129465446468287 0  0.06099431830938445 0.3844706742360927 0  0.1038714447569958 0.4968053895139916 0  0.07261836495365119 0.8520669608573707 0  0.125 0.859375 0  0.1042195743166846 0.871267532383033 0  0.1042953726576324 0.6211504246078988 0  0.07222987402884687 0.4785156251683452 0  0.125 0.328125 0  0.125 0.984375 0  0.08224716045754427 0.65550416509288 0  0.07174465449286124 0.6392252775633923 0  0.104342652316052 0.903997804632104 0  0.08499844918863737 0.142434120427652 0  0.0844985192851985 0.6214602780221394 0  0.04739583333333333 0.06666666666666667 0  0.05529012802864505 0.8874707890510186 0  0.07963297040422486 0.2085407376975881 0  0.1058968411519645 0.6894306991298484 0  0.07766817664565827 0.1056561296393557 0  0.1057560771716062 0.1835282231549565 0  0.07773382092984268 0.7013018062982547 0  0.04305452277962929 0.4840923655564813 0  0.04305452277962929 0.8590923655564813 0  0.01875 0.950780111105415 0  0.07024795506527168 0.2930300420408972 0  0.0478397200304771 0.2965328103930845 0  0.05121648255071443 0.3237514478060962 0  0.08754502715293848 0.4598932538963194 0  0.08754502715293848 0.5848932538963193 0  0.08754502715293848 0.8348932538963193 0  0.0809015012254902 0.1712526807598039 0  0.01829563924765609 0.4971063294237891 0  0.125 0.640625 0  0.1084926420285044 0.3359375 0  0.1063049178180489 0.07791358842139073 0  0.07632685032323469 0.08189787709891407 0  0.07651225432210323 0.3501759166473921 0  0.1069221282820671 0.370738774849029 0  0.1067803879682793 0.8097224268749272 0  0.1067803879682793 0.5597224268749272 0  0.0732493355785593 0.8876902320260575 0  0.01502467351849249 0.9167032210578127 0  0.08615695482809546 0.4994098249368031 0  0.125 0.890625 0  0.02098784564269657 0.8719694826931684 0  0.08605728693236238 0.7487942702415453 0  0.125 0.484375 0  0.06046421450728726 0.9420052721508373 0  0.109375 1 0  0.08004180148148797 0.777271102962976 0  0.04883736512240355 0.2304872302448071 0  0.04561230035288119 0.7865371007057623 0  0.04586777931655463 0.4120480586331092 0  0.04802334735844737 0.5413591947168948 0  0.08580129279582045 0.9374318963979102 0  0.01822916666666666 0.06510416666666667 0  0.01726601304092138 0.6517195260818428 0  0.01726601304092139 0.08921952608184278 0  0.04468848999483189 0.6528105200103362 0  0.01827879140158732 0.7837549171968253 0  0.01825288449808249 0.408806731003835 0  0.03971354166666667 0.6236979166666666 0  0 0.421875 0  0.015625 0.4296875 0  0.01816132012761036 0.5339898597447793 0  0.01888020833333334 0.6263020833333334 0  0.04468848999483186 0.09031052001033626 0  0.01827879140158732 0.2212549171968254 0  0.07457391546693767 0.5163353309338754 0  0.125 0.921875 0  0.1077339869590786 0.5267195260818428 0  0.1077339869590786 0.7767195260818428 0  0.1101351348842065 0.759332769768413 0  0.08233437225029967 0.9056437554994007 0  0.0184015012254902 0.2477405024509804 0  0.01883462974062772 0.5611067594812554 0  0.01888020833333333 0.8111979166666666 0  0.1086095656153081 0.3533788510713674 0  0.06562230895048585 0.7359098273357195 0  0.03710573475337388 0.8426414021221816 0  0.03710573475337388 0.4676414021221816 0  0.125 0.671875 0  0.125 0.609375 0  0.1076303706657158 0.4704816551506308 0  0.1095065661265748 0.8515625 0  0.1076303706657158 0.5954816551506308 0  0.03385416666666666 0.03571428571428571 0  0.0863546556944139 0.8706926289304113 0 
[...]
<PointData  Scalars="flx"> 
<DataArray  type="Float64"  Name="flx"  format="ascii">1.9903523391210829e+00  2.8738964648466578e+01  7.6200607580866517e+00  3.5818731067770659e+02  3.7578206508281041e+03  1.5263677692165109e+03  4.0252021459492255e+01  6.6104380616381647e+01  3.7617999455624602e+00  2.7744860197979883e+03  1.6976305249210674e+02  1.1203318122796967e+01  3.6791734913852594e+01  1.8417314341498906e+04  3.5945497892264171e+02  6.6412611331640915e+02  4.1393961811419751e+04  7.0007704767398693e+01  6.8401209858310068e+00  3.8274642776650104e+01  1.0304671143105411e+01  4.3198355405016990e+01  1.9075298616150378e+03  5.0399326014355230e+00  1.7557537990981320e+03  1.1943881374245366e+03  2.0915951951837312e+02  6.9071959585818334e+01  3.9535209596058141e+00  5.7247327761825835e+00  1.2586456753727186e+01  1.4353571328607112e+01  2.2694685456451655e+01  5.9580595043557743e+01  2.0777969151837528e+01  5.6620270010029436e+00  1.2510510260751742e+02  7.4734047650656767e+03  1.5150641134359839e+03  4.0875586590515411e+02  5.0658560598355007e+03  1.3569875900024533e+02  1.3192515009881163e+02  4.7522328373695885e+01  1.4023763300522148e+02  1.0180508953024287e+02  3.0621830429675947e+02  1.3561821571548029e+02  7.1017863918936530e+02  4.7781081479219040e+02  2.4673303271875761e+03  3.1563726445675235e+02  7.7276579441216091e+00  1.5564376819093306e+01  1.5013682012685839e+01  6.0730486943870226e+00  2.3576321137132976e+02  2.4327839535628169e+02  1.9210027694348209e+03  3.6118561709763771e+03  4.8950384354452922e+02  3.3118199761973477e+02  6.6102460939851202e+00  6.3983206730089269e+03  6.8152137268025876e+02  2.5691700486267720e+04  5.5596391343888909e+00  2.2185237677417393e+02  2.9533668698465725e+01  1.9049056957446064e+03  3.1551494751735319e+01  8.2326540560134526e+03  4.4774284188426048e+00  2.2260074446960349e+01  4.6288253743997466e+01  3.2990406230209628e+04  2.0505131871171138e+03  1.0363538486672501e+03  3.1921595963493894e+02  4.6214907937021059e+02  8.4224445740612737e+00  5.7879219790581597e+00  8.2798342490737967e+04  3.5008081100516251e+03  1.4234586330172256e+01  4.5045915602954693e+02  1.0281292227605149e+03  4.2638862122446562e+03  1.7644874641809063e+04  1.8280833033138038e+03  3.8492517768902530e+03  3.1507934603645253e+02  3.5554431365953164e+01  2.0754270058495320e+02  1.8378674671201577e+04  1.6066590621599936e+01  9.2122436833134600e+02  9.2654824949825478e+00  1.4647456945610875e+02  2.7178371539726203e+02  4.3012493045032926e+01  7.7536927487901281e+04  4.8672841166811686e+01  1.0484317285853535e+03  2.6477059737811152e+02  4.0447852265135502e+04  1.6995942248273857e+02  1.1443912693534713e+01  6.2413600206331557e+02  9.9297281913201459e+01  1.9497343941168925e+01  1.3834486872375381e+05  1.9690412799947559e+01  4.2505584713776454e+02  4.2430499485358830e+01  1.2680919622689299e+01  1.2106253047423287e+02  1.1624276533559754e+02  2.5358510957418258e+02  1.1700688768289520e+02  1.1633443388114576e+05  1.4280526539054970e+03  3.4753282503725401e+01  1.7081923822301898e+04  6.1115302450691997e+00  5.8805422297711921e+03  4.3539991860602754e+02  2.3245007647714874e+02  4.2752768605954465e+01  4.3953757893638205e+01  2.9859912415240714e+01  1.2650491199828093e+03  1.2313173734699749e+04  5.7329187210284226e+02  2.3709967853643382e+04  3.8563576666506054e+02  2.2905943388006071e+03  7.1438037224297557e+02  1.2372219875482095e+02  3.6261185867193393e+02  1.9622281255075700e+03  6.6087249292349654e+01  7.0903518872239681e+02  5.1672968107189299e+03  5.4214172293946106e+01  9.0816813265002949e+01  4.8333561041662925e+01  6.7788617686847886e+02  8.2589555819908446e+02  3.4846181721094510e+01  1.3200700418806994e+02  7.5038434073697204e+02  3.1503240620876284e+02  5.4994967736705451e+02  4.2079697602192219e+01  1.2902630460868163e+03  7.2892342326171317e+01  1.8269032199564535e+02  3.1777039294164325e+02  3.3349625612778205e+01  6.5805535073469957e+02  1.9851010123326059e+01  1.4689281017890238e+05  1.9033596438545183e+02  1.8180683523955139e+01  3.7284932907088605e+03  5.8534793798191813e+03  5.6346973870991015e+01  4.4561119312320589e+04  2.2974045900964871e+05  1.0512337506847975e+03  1.4333978390077744e+04  4.6621582148222196e+03  1.7533241541153672e+02  5.4251093053320174e+03  1.2750571837392407e+05  4.0461145644888120e+02  7.2180545683526429e+02  1.2659691695766342e+03  7.4270537569311664e+03  1.1781275872788024e+02  2.4414858376596197e+02  4.5968132359866058e+02  6.2845573397609473e+02  7.5531611403696417e+01  8.0243817628053057e+03  1.2091934182229538e+03  1.4268387534762797e+02  1.3947121051338240e+02  1.1912351729769658e+02  1.2043000452399865e+02  1.3654388741004605e+03  7.1971797877635584e+02  8.2450695568788421e+02  3.6278755990053046e+03  6.1260318906697595e+00  1.1798926971562341e+04  4.3681837437481477e+00  1.4164309312257029e+02  8.5017474905592292e+02  1.4050903038309576e+05  1.7181164496270731e+02  4.4467454539234641e+03  1.7654893246621447e+02  4.9119587057218541e+02  1.3259987685869106e+02  2.0185567363081574e+02  5.0049843011419043e+01  6.0650439022399269e+02  9.2488990958675657e+01  3.6908261849414863e+01  1.3086110758383032e+02  9.8550672872753211e+01  3.2269964858515846e+02  5.1778684660676765e+02  1.5862488171569934e+04  2.8741298166191239e+01  4.5930517962548387e+04  2.5314420140087282e+02  1.6703206840824836e+02  4.1418586308903500e+01  4.3645706765273218e+01  7.1843061058178890e+01  6.9816029523519830e+01  4.1320293545655019e+01  3.7231140000732586e+04  3.9199770960888422e+01  2.1493910661447568e+01  3.2296212370076792e+03  1.1809813861287111e+02  2.5495157639081827e+02  6.9467542544863954e+02  1.2074841931085787e+01  7.8956192652989060e+01  1.6139909424247043e+02  1.1959026620705160e+03  1.0078795292654594e+02  6.6267591635286647e+02  1.7618710825158167e+04  8.8465593658912113e+01  2.9304935305229357e+01  1.7676555048285478e+04  1.5513727161412393e+02  5.5827884447883139e+02  6.5563904367569376e+03  1.9875634619692239e+03  2.0776669151127740e+02  1.7003617579035102e+02  8.8668579816749407e+03  7.3513771449374974e+02  3.9590522305639382e+02  6.7453185257357390e+01  1.3293658123972232e+05  7.1576338354610880e+02  2.9376009109545618e+02  1.8419060504577551e+03  5.2753353787278428e+01  3.3715857886181169e+02  5.1229885292318592e+01  2.9424077071249434e+02  6.4168267825400704e+01  3.4462731886844814e+01  7.2095665837135570e+01  1.6013287034268222e+02  2.3295455235244012e+03  2.8730279074631042e+04  1.2026417728525672e+05  3.6791677604943192e+02  3.2160358011031894e+02  1.1018187552279016e+02  1.9868485818613752e+02  6.9612421578686011e+01  1.2127693317409550e+02  1.1421877785010720e+02  1.2064123786625949e+02  1.7520381202070997e+01  1.4931516969040688e+03  1.3706517333055669e+02  7.0844638962174668e+03  2.8102394994553924e+02  7.3348193068036949e+02  1.6817862554219383e+02  5.9077769038428880e+02  7.2992539002242168e+01  5.3004480817761563e+04  1.2387564102614837e+04  3.2711729825062827e+02  5.0647143522428429e+01  1.3924147489287716e+02  2.4991263433146527e+04  7.7168163554052157e+01  8.7576214653069053e+02  9.7123686379590694e+01  3.5173562627241467e+04  1.2202282066378850e+04  6.6538254275875815e+01  1.6148269471954086e+02  5.3853716898397374e+02  1.6148735802167991e+01  1.4654049969747202e+03  3.8338658200500671e+04  3.5750032289458680e+01  1.5409659390102300e+02  2.3426100055360594e+03  8.4415490476402988e+02  1.6720210255230508e+04  1.8704392287406205e+02  1.0460841141325541e+03  8.0336763729430254e+02  2.0147345787366630e+03  5.9428193458296118e+02  1.6931673039193754e+01  4.2233595190926494e+01  2.1508503180354126e+02  2.8512256823842840e+03  2.2832121807364717e+02  2.8239472164751288e+02  1.1671925139980845e+01  1.8279485761866049e+01  2.4666852451997070e+01  4.8546153970816903e+01  4.8183197740575899e+01  9.4260924748374237e+01  6.9474867492472736e+00  9.3258526755687910e+02  9.5126416616303629e+01  2.1162601578040335e+02  6.1977848946298948e+01  7.2480408094445750e+01  1.1698420530650930e+04  1.4113650294358276e+03  7.9396183720873505e+03  1.4767826697395558e+03  1.5089574884744150e+04  2.4579636671938438e+03  1.3301190480173379e+05  1.6346892838347889e+04  8.4716191444170107e+01  2.7125976332868920e+01  6.0977928219558908e+03  3.0419358398931308e+01  2.7798187938692081e+04  4.8455560345436961e+03  9.8511684219323172e+02  4.0081662141271539e+02  1.0575943659817907e+04  7.6364226664103811e+01  8.4847046367872153e+03  1.0554814906909331e+02  2.4214945070060003e+02  6.7214874424402319e+02  8.3983213153274548e+01  5.4049264363467060e+00  8.2849235268252812e+00  2.1300292752164936e+04  7.6377757613069024e+00  7.9590803917555855e+00  8.1596497614096339e+00  3.1648525511454178e+01  1.5179511236690195e+02  4.9147744590034876e+02  1.0658066834861485e+01  3.4959098117819689e+04  1.6275827246716906e+03  1.9107630210829263e+03  2.7129044055633578e+01  1.3301381490586154e+01  3.2080229004951008e+02  3.2644768290768454e+01  1.4516786884501832e+02  9.1315447104031155e+03  1.7225342925327343e+01  1.8174330264600512e+03  1.3226507534859351e+04  6.6667035975731352e+01  4.8021211647403106e+03  4.2280638822628762e+03  4.1803183097030313e+02  4.7085226466680103e+02  1.0225698736471021e+01  2.3501891544756724e+01  1.9264155734373597e+02  1.0152924789150006e+01  2.8024839979436184e+01  3.7596040531226059e+01  1.4575608954272804e+04  4.0140048174736078e+00  7.3715168090641512e+01  1.3761086216285651e+02  7.7763606267490871e+01  2.0812894795785439e+02  4.4150594541167783e+02  2.5228721938461422e+02  1.7150408331997468e+01  5.0359240336213773e+00  4.8769772762071403e+02  6.3102388683255187e+04  1.2915443249938836e+05  1.3722366741576437e+01  2.8734713674907400e+01  2.1677625743804927e+02  5.1609201736885817e+00  2.4888765997291858e+02  1.2683068129817382e+01  1.1926302441036356e+01  1.2985441852698491e+01  9.2921447131808307e+01  4.7338700260768633e+01  2.1315015244864782e+01  4.2497771708303404e+01  7.1458905248654531e+01  5.0132106864842072e+01  7.7686579801998278e+01  6.5208349321407830e+00  1.9653852353406993e+01  1.2454371078943321e+01  1.3346359564699993e+01  1.8240349755515780e+01  2.0709902815428961e+01  1.7942729903429561e+03  1.4223390699634606e+02  1.0396497188170193e+02  3.6446606963518519e+01  1.3397975643093895e+02  1.7321274242691184e+03  1.0824018848158639e+03  1.5518797020394761e+03  9.4222142367199041e+01  3.7509194302630493e+02  1.3969991555593635e+03  1.5193841420647510e+02  3.9770582812326253e+01  2.6147730056640303e+03  3.0731242965533960e+02  5.2333946669694774e+02  2.1179616911388774e+02  1.5589363435798488e+05  3.3519015830642911e+02  1.4934604255202248e+02  3.2031263201706719e+02  2.3361999838903043e+02  3.8496206879900365e+02  6.8652491207936848e+01  4.8046646504647114e+01  1.0717877337019580e+02  5.8941134269778718e+02  4.7148253854237275e+01  4.7874608332064898e+04  1.8318857762198800e+01  2.4451591216862180e+03  8.4012757150531712e+01  6.2655089864667843e+01  1.0279431044195393e+02  6.4818443537614030e+01  5.7676499031936942e+02  6.4137686574367535e+02  1.2574299887397258e+03  2.1477197751873082e+04  4.4262610588364186e+02  1.3583195037756766e+03  6.6877224977717844e+02  7.6916940736740617e+03  1.4263525844972777e+04  6.6360654954178290e+03  2.4062928881395551e+03  2.8095191580627926e+01  5.0606834786707520e+02  1.3724624692868613e+03  7.6791353178425845e+02  1.1882325866319300e+03  2.1313619807008109e+02  8.4639440685196007e+01  3.0615162129595905e+01  2.0560210054414935e+02  1.4487278893352982e+02  2.3817776385184487e+02  7.0312469213452334e+02  4.2080231744769165e+01  6.5794147975319248e+01  2.4197946324391642e+03  2.4778897362994229e+02  3.6369534362626932e+03  1.3276721799765055e+03  4.7913959723849354e+02  5.0731726380727446e+02  2.7579461592572052e+01  1.5675560397984475e+03  2.4579654974652513e+02  2.7638567304228611e+04  5.3790734954572808e+03  7.8505120223672191e+02  1.1428312786501718e+02  5.4926883522853161e+04  1.0723628751378926e+03  1.2208112119942771e+02  6.7687065089244442e+01  1.6271722718809699e+03  2.6463723829550304e+02  5.0889260243265504e+01  3.1167379606173757e+01  1.9044740058155924e+03  5.9836830313174950e+01  1.3072286756673627e+03  6.8741741788662989e+02  2.3378709592388018e+03  4.0184217091971146e+02  1.0376661417311800e+03  2.4911780894449298e+03  1.0064070009104542e+02  1.0739949537956868e+03  2.0122413092479269e+02  4.1567293616272366e+02  1.7395986890122163e+02  3.1682471761935398e+02  4.8123787983093889e+03  1.3301288557243154e+02  1.2263949960020886e+02  5.2922514742814528e+04  3.4139190260355315e+02  2.8194613529716944e+03  3.1868913216006586e+01  8.9948252163886536e+01  1.8293101820654869e+02  1.9210751213045185e+02  4.7755226946505978e+01  1.1687763181953576e+02  2.2814163094627829e+03  4.5870991381946960e+03  2.0258256699512140e+02  1.0787816627924797e+03  8.3852712497186147e+01  2.3910410946018305e+03  2.7779544235141444e+01  1.2503002988888998e+02  6.0551961232047393e+02  5.5714450101073126e+01  1.0975922219834777e+02  1.3425808274701192e+01  2.4692029439186704e+03  4.5709177710338429e+02  4.7773049845158835e+02  1.9306195686925244e+02  3.1126009359938084e+03  1.3216958581330362e+03  4.1242492377231611e+02  2.7081070864868794e+04  1.8547558719275818e+02  6.7130737951572892e+03  1.5612806971533240e+04  2.1780440810622764e+02  2.4965893827622193e+02  8.4444917351736308e+02  2.3629084097389178e+01  2.4918214870032028e+01  3.0088919388783697e+03  3.3188956949898575e+03  4.0850540723862184e+02  5.6317705407763995e+01  3.2703432441484375e+02  8.3496727018228682e+02  6.2064757407004697e+02  8.7758725522342843e+02  1.3834804489785378e+02  1.0920302429139763e+04  1.1519910675750539e+03  1.2111937446869641e+02  1.2412001285380520e+03  5.8943780794418308e+02  2.0690693246419141e+03  4.1869564628101023e+02  1.1691605521284921e+04  1.5623205169161433e+03  4.2743488039435374e+02  1.1796853385696240e+03  6.7393204932209443e+01  2.7420368062484926e+02  1.2360132672243749e+02  1.1561269509385210e+02  1.5756051227128130e+03  1.2890013876254616e+03  5.2098959760009675e+03  3.2593285349554463e+01  1.5562893413874033e+02  1.5133507322940263e+03  4.8000017258645704e+02  1.2381990002419012e+02  5.6274084430151476e+01  3.2349054428267715e+02  6.4332696632919633e+03  6.5876044324634777e+03  2.4316786159000454e+01  5.1108353375614030e+01  6.7537471004365648e+02  6.6110659965450239e+01  2.6771175343754303e+03  1.1215673674452398e+02  2.5236916764378330e+02  1.1951903722969497e+04  2.4945609578293670e+05  3.9238763174407918e+03  1.6216702288296185e+02  2.8945244851069347e+03  2.8951810791381615e+02  2.4252090217791441e+01  1.7633818799024797e+02  2.4261054762246845e+03  2.3773371816957979e+02  8.6630540589960688e+01  5.0144924051113344e+02  1.1174787376912762e+04  3.4366068721364815e+02  2.3307911226179371e+02  3.8043352368558295e+01  3.6056717912655563e+03  3.1183992509544788e+02  1.9269668824943294e+03  3.8416697189626748e+03  5.0137172805691215e+01  2.6594112705605567e+03  1.4437649746265919e+02  7.6532541717802269e+02  1.0807739580262049e+02  1.2863311485711878e+05  1.7143235003641437e+03  7.0993043517559715e+02  9.3152602146302434e+02  6.1139656928014492e+03  4.4229067457578317e+01  4.6764699827289327e+01  7.8541700390379026e+02  6.7295410736193207e+03  1.3591652645811564e+04  3.1933163394147959e+02  2.9132938043348048e+02  7.8575640478199903e+03  2.6930478539614677e+02  2.7862298431412074e+02  1.8457209522079502e+03  1.2815013359150245e+02  9.8229527509929976e+03  2.5659537353671947e+01  7.7344430766006742e+04  5.1682953127473972e+01  9.9323414376817935e+04  4.8310034545240245e+02  4.0318063033031558e+02  8.5964605830490598e+01  4.6343776738865138e+01  9.0560582534351433e+03  2.4792196866787872e+04  6.9360273443073339e+01  2.7503450262817087e+03  3.7342815320085327e+02  4.3906945078433810e+03  1.9037223795908784e+02  4.8446960850053274e+03  6.4317980724740050e+02  5.6724496133520493e+04  2.1564242544226377e+03  6.0597475593141418e+01  3.4574833704824937e+02  7.9477862761835439e+01  8.1865795399500537e+04  7.5381073177516157e+01  1.3799812597797347e+03  8.1898293649647906e+02  1.1731522967840500e+05  1.3820261370527094e+04  1.5608951525471799e+04  1.0400447203399306e+04  1.2925030514690902e+03  5.1120085648711603e+02  6.0166450097821389e+01  2.8417676689463111e+04  3.4047954290365647e+02  1.3126998766051687e+05  7.1276389366633146e+02  8.9584185599000818e+02  1.0574072173092411e+02  7.9426222317118645e+03  1.6930081408032244e+01  1.0590405298289956e+04  7.1991896000640807e+01  2.6399019190282752e+02  2.5373822250001236e+01  6.5775064783047094e+02  9.8823118852655352e+02  1.5199739383246211e+02  2.3237045174478826e+02  1.8126660825887524e+02  3.6750176491519909e+02  4.1385282179289106e+02  6.6323008351814138e+01  1.5162679996459158e+03  5.0136033763438661e+01  8.2400406068946927e+02  7.0556401941727905e+04  6.9131759028031183e+02  3.8917226559897827e+01  3.2200247660129162e+02  9.6789743552901882e+02  3.1080202193803945e+02  1.8281851299151649e+02  1.5742436021678070e+04  3.6643779623447685e+01  2.5953088158321214e+02  1.4174724545969886e+02  1.1172169730370106e+04  1.5115562743307471e+03  3.0376579149463635e+02  5.1492930677261722e+02  9.4711222947142433e+03  4.4879997090125762e+03  1.4743649490205158e+02  4.1228181599171720e+01  1.4042996929448441e+02  3.7374687391674104e+02  4.8791994548881242e+01  9.7122611471548407e+02  6.7100877399222907e+02  3.7321514074468809e+02  1.0518090318146815e+03  2.1150356921698514e+02  5.6165150610430523e+01  5.4974671089854119e+03  2.8028422209226064e+03  4.8685745039714953e+02  7.4355933540049477e+02  3.7421061536476962e+01  1.9888907068838145e+02  2.6715320978155763e+01  9.8946459015227015e+02  1.0571797509146550e+02  4.9931718796441487e+01  1.8587472248662550e+03  7.2348753635656607e+01  2.1199622927003425e+01  1.4817330407301260e+03  1.6684874083448824e+03  5.3362428530250232e+04  5.3933120794345669e+01  5.0073070338296702e+01  1.6022745019064764e+01  3.0026194536617919e+02  1.0059019088644818e+02  4.5769277748421757e+02  2.5177993553582260e+03  2.5194481930906622e+03  5.2694193253695410e+01  5.3965140359809403e+01  1.2603318025962617e+05  3.5241415659681172e+02  3.4528376069823977e+01  8.4931947136344689e+01  5.8931353891926619e+03  8.9144203596624004e+02  1.5840468560084020e+04  6.4047208131691320e+02  2.2052700890929754e+02  1.0976606737275360e+02  1.9578636406565384e+01  1.6649701447190586e+04  5.7304518310113345e+01  2.4948229395270634e+01  3.8443188656578459e+04  1.2988323498788255e+04  6.0464211407593166e+03  2.6806379462646014e+03  4.0384179796958102e+02  1.6775787366958207e+02  1.0808846256339382e+03  7.1890180555820450e+02  2.2053058581708905e+02  3.7062041472570451e+02  1.8051317066417454e+02  3.0225112129392551e+05  1.2820956524034312e+02  3.0795405027167010e+02  7.5974635617918338e+01  1.6653422333414258e+02  2.0484538730272525e+04  1.7090798134651095e+01  4.1894783964894359e+03  8.7246988310689703e+03  2.5954286087599544e+03  4.5770404143306017e+01  9.9780148846267736e+01  1.0727228532568399e+04  6.3497114650018865e+01  2.0465270213525920e+02  1.9785449423064031e+02  9.4767419076153018e+01  2.5717744948668904e+04  2.3473960536939563e+02  3.2410291076847767e+02  1.4659820017561705e+02  1.0539890458513937e+04  9.9073426082007200e+02  2.2199880741670547e+01  1.1299325253931554e+04  1.0221997456092699e+02  3.6815033014265991e+03  1.1464442903728227e+03  1.9470408240831011e+02  2.0886014555184849e+02  2.0428880158091602e+03  6.6293565985413867e+00  4.1387824843967998e+01  3.5993595798948888e+01  1.9191237884382938e+03  3.3001765194921313e+02  4.9255350682937365e+02  3.6141051379474366e+03  1.6190077203753913e+03  1.0305848422905612e+04  1.6009640021541745e+03  1.5625659607570216e+02  6.1578611298357180e+02  4.2599479154594934e+04  1.3288559208466165e+02  5.1570336440525345e+01  6.4538113167202318e+03  8.3945548017053717e+00  4.5788241420909543e+01  4.7638173761307814e+02  2.7223683024135721e+03  1.6221882170742119e+04  1.5710901442978445e+02  8.0454867153098553e+02  7.4951616851870449e+0