<?xml version="1.0"?>
<VTKFile type="UnstructuredGrid"  version="0.1"  >
<UnstructuredGrid>
<Piece  NumberOfPoints="12250" NumberOfCells="23858">
<Points>
<DataArray  type="Float64"  NumberOfComponents="3"  format="ascii">0 1 0  0 0 0  0.25 0 0  0.25 1 0  0.25 0.5 0  0 0.5 0  0.25 0.25 0  0 0.25 0  0 0.75 0  0.25 0.75 0  0.25 0.125 0  0 0.125 0  0.125 0 0  0.25 0.625 0  0 0.625 0  0.25 0.875 0  0.125 1 0  0 0.875 0  0 0.375 0  0.25 0.375 0  0.125 0.3125 0  0.125 0.5625 0  0.125 0.8125 0  0.125 0.125 0  0.109375 0.4375 0  0.109375 0.6875 0  0.09375 0.21875 0  0.15625 0.90625 0  0.25 0.0625 0  0.1875 0 0  0.0625 0 0  0 0.0625 0  0.0703125 0.9296875 0  0.25 0.1875 0  0.175 0.21875 0  0.1686580882352941 0.6314338235294118 0  0.25 0.5625 0  0.1686580882352941 0.3814338235294118 0  0.25 0.3125 0  0.1846093920839711 0.457675742811065 0  0.1846093920839711 0.7076757428110649 0  0.06963315217391304 0.8580163043478261 0  0.07291666666666667 0.07291666666666667 0  0.15625 0.0625 0  0.1875 0.84375 0  0.0625 0.28125 0  0.1875 0.53125 0  0.07552083333333334 0.7552083333333334 0  0.07552083333333334 0.5052083333333334 0  0 0.5625 0  0.07552083333333333 0.3697916666666667 0  0.07552083333333333 0.6197916666666666 0  0.1824174313243159 0.7757901373513681 0  0.0625 0.15625 0  0.25 0.9375 0  0.1875 1 0  0 0.8125 0  0 0.4375 0  0 0.6875 0  0 0.3125 0  0.25 0.6875 0  0.1875 0.285625 0  0.1875 0.151875 0  0 0.9375 0  0.0625 1 0  0.25 0.4375 0  0.25 0.8125 0  0 0.1875 0  0.1349233842818192 0.4925919004742429 0  0.1335152562773358 0.7418878364720013 0  0.0594917385057471 0.5625 0  0.203125 0.09375 0  0.0546875 0.4225260416666667 0  0.0546875 0.6725260416666666 0  0.2019136658660413 0.338216765427811 0  0.1995020000924898 0.5853709998150204 0  0.134375 0.2572916666666667 0  0.134375 0.1802083333333333 0  0.0542280474742976 0.8055614981858166 0  0.1221934647393398 0.8655188450868867 0  0.04166666666666666 0.21875 0  0.15625 0.9583333333333334 0  0.203125 0.890625 0  0.206713569888 0.4132614932290299 0  0.2115463505317381 0.65625 0  0.2012310606060606 0.9393939393939394 0  0.201171875 0.0458984375 0  0.03999561774661511 0.7201937510074146 0  0.0399956177466151 0.4701937510074146 0  0.035784841954023 0.34375 0  0.120327818627451 0.6397058823529411 0  0.120327818627451 0.3897058823529412 0  0.109375 0.9557291666666666 0  0.04564950980392158 0.1118259803921569 0  0.1118259803921569 0.04564950980392157 0  0.08025380291005291 0.3238673941798942 0  0.1112651209677419 0.9105762768817204 0  0.03211805555555555 0.90625 0  0.03828125 0.96171875 0  0.04036458333333334 0.04036458333333334 0  0.03620912949997044 0.5250978305837619 0  0 0.59375 0  0.162109375 0.1044921875 0  0.03118139907916267 0.8408194304321051 0  0.1571963533457454 0.590400949253577 0  0.1587578894014007 0.3394119764183286 0  0.1506969975490196 0.4218175551470588 0  0.1506969975490195 0.6718175551470588 0  0.2070906355574324 0.2473574746621622 0  0.2070906355574324 0.1901425253378378 0  0.08465650753054846 0.1224380150610969 0  0.1114330859658678 0.08648358070079884 0  0.04054746717714226 0.5986883868529541 0  0.25 0.15625 0  0.25 0.28125 0  0.25 0.71875 0  0.2084391486333693 0.742535064766066 0  0.2077428895139916 0.4936107790279832 0  0.25 0.96875 0  0.03666712336686759 0.7684569195137533 0  0.1109703176434807 0.3503952932678546 0  0.1109703176434807 0.6003952932678546 0  0.1323450854700855 0.21875 0  0.25 0.78125 0  0.2086853046321041 0.8079956092642081 0  0.08000310162272527 0.465131759144696 0  0.08000310162272528 0.715131759144696 0  0.1018832642575987 0.1578918738938707 0  0.09479166666666666 0.2583333333333333 0  0.03867928291393143 0.3857193939186725 0  0.09132584216562684 0.7915703900993829 0  0.09224586925287355 0.5407758212513062 0  0.2116835102241899 0.3752677467682454 0  0.0414061843625662 0.6367966883181331 0  0.25 0.21875 0  0.08681832107843138 0.4047372855392157 0  0.08681832107843135 0.6547372855392156 0  0.1712610500122523 0.4982534075100398 0  0.1479279021104813 0.5302308042209626 0  0.1402758174771396 0.4566398871709348 0  0.1401770623234474 0.7063796751786664 0  0.2135607759365587 0.6194448537498545 0  0.07848715477520853 0.8937711976365836 0  0.09934508737030834 0.8377256696305275 0  0.07675624887614536 0.0340696230396066 0  0.03406962303960659 0.07675624887614535 0  0.1440082713785475 0.7789727266050902 0  0.1660139782670602 0.8111869039237365 0  0.07431640624999999 0.96572265625 0  0.25 0.46875 0  0.1698567708333333 0.03024088541666667 0  0.171875 0.875 0  0.03645833333333333 0.2552083333333333 0  0.08098262222381999 0.18607118888809 0  0.02997236128493951 0.143180277430121 0  0.25 0.84375 0  0.2154679739181572 0.5534390521636856 0  0.03645833333333334 0.1822916666666667 0  0.03632264025522072 0.3070202805104414 0  0.21875 1 0  0.1513741686550626 0.8442167313996213 0  0.2168133977813582 0.4459955487717956 0  0.2190131322531496 0.703125 0  0.1727093113888277 0.7413852578608228 0  0.1701041666666667 0.2542708333333333 0  0.1517708333333333 0.1488541666666667 0  0.2142163753799392 0.1278941869300912 0  0.1587267574490621 0.3048224010443303 0  0.2156942356037362 0.3061689288285205 0  0.1725364379972955 0.1836837968219244 0  0 0.28125 0  0.25 0.59375 0  0.09623775023237939 0.2930336745498909 0  0.21875 0 0  0.25 0.03125 0  0.1670095396165001 0.5580904353245775 0  0.21875 0.859375 0  0.25 0.90625 0  0.06770833333333333 0.2392406798245614 0  0.1360540015737478 0.9322916666666666 0  0 0.65625 0  0.2159715577099652 0.7752374751740043 0  0.03967280310556515 0.8734198626945593 0  0.1077910012998816 0.762797795345007 0  0 0.40625 0  0.1171150579179289 0.5198108382041321 0  0.09070664895503529 0.5740093301963526 0  0.25 0.53125 0  0.1411005024478043 0.365749143953847 0  0.203125 0.9716815370501894 0  0.1837945203686314 0.6744812093095998 0  0.2183170921236503 0.1602468982335675 0  0 0.15625 0  0 0.09375 0  0.09375 0 0  0 0.53125 0  0.03125 0 0  0 0.03125 0  0 0.96875 0  0.03125 1 0  0 0.84375 0  0 0.90625 0  0 0.34375 0  0 0.46875 0  0 0.71875 0  0.25 0.65625 0  0.25 0.40625 0  0.15625 1 0  0 0.21875 0  0.25 0.34375 0  0.25 0.09375 0  0 0.78125 0  0.09375 1 0  0.15625 0 0  0.1382501640128451 0.6146706181423367 0  0.1029032040920708 0.4879819075298724 0  0.1112825458828796 0.718954367531518 0  0.2169638964623854 0.5228330254530568 0  0.1405591976966633 0.03688248058223706 0  0.02974586925287355 0.5550688899717633 0  0.2160338230385579 0.2760842074590348 0  0.02581632758445363 0.7963003271249862 0  0.224971958664313 0.921875 0  0.06400137079623429 0.5337450614030229 0  0.2037965081545127 0.21875 0  0.1853048017546082 0.1225569867710261 0  0.02797756823289423 0.4122583915708087 0  0.03201311651072376 0.4416354471567994 0  0.02802337245342894 0.662104489389812 0  0.03186754112015969 0.6915905787012612 0  0.2261855508973228 0.953125 0  0.08036684492372444 0.6860917176336441 0  0.08036684492372444 0.4360917176336441 0  0.1802741037799466 0.4278105955407592 0  0.1778428819444444 0.08089192708333333 0  0.2205285078642384 0.06907401179635761 0  0.1088722606056869 0.1940083737915799 0  0.1367254622493273 0.2860909589983134 0  0.06842073158759261 0.5920268866576984 0  0.184988977893691 0.9143419336810731 0  0.0418402777777778 0.9332465277777777 0  0.1871006213226104 0.6104250062100378 0  0.07985644640444792 0.8173374306235633 0  0.04732923247576441 0.4982821258888622 0  0.06611853992436414 0.780911006716439 0  0.2273935668277038 0.828125 0  0.1858696187385389 0.3143428712429033 0  0.1140892094017094 0.2390357905982906 0  0.1877922691669536 0.3617539661943096 0  0.05758674846768909 0.8333647569007363 0  0.1352608290824233 0.09973815947057559 0  0.1517706243282904 0.2004488161476693 0  0.1449695316901515 0.8810785158450758 0  0.09462378205504757 0.8708015690781575 0  0.227445339911385 0.578125 0  0.05745737992792876 0.4499181399758709 0  0.05780649493506441 0.7003314350163611 0  0.1187818739346447 0.7868226346316679 0  0.1745466635354981 0.9389032027907473 0  0.1256305258840564 0.838799819642297 0  0.06770833333333333 0.2124471236358035 0  0.02083333333333334 0.203125 0  0.140625 0.9791666666666667 0  0.1766821659552516 0.975561292200228 0  0.1620783318872163 0.4727483267075381 0  0.1536725427350427 0.2339082512469609 0  0.1617771474337578 0.278952823831228 0  0.02741604996872549 0.281090803289549 0  0.06183906994143391 0.3975310989925237 0  0.2268982540772563 0.2305832481508689 0  0.2294261974844445 0.203125 0  0.02083333333333332 0.234375 0  0.2223182091346154 0.02768179086538462 0  0.09616947414406221 0.7398115542262675 0  0.1053409896466572 0.4626386355124552 0  0.08648552069711524 0.09585218346816277 0  0.2272083926866681 0.3301067571674309 0  0.1294244353979274 0.06623776300617727 0  0.1263039818717184 0.1504857241294106 0  0.1149927180695202 0.2733691199751007 0  0.06199131875595188 0.7334062158692485 0  0.02625450755792898 0.7434924481572176 0  0.01945983991027112 0.484375 0  0.2275111354177403 0.3554598004473978 0  0.1921314999800934 0.3920320902063825 0  0.2289470153175877 0.4243266814421967 0  0.1870247299647788 0.6491605463078544 0  0.230773175265869 0.640625 0  0.2257840012722039 0.6780142623324342 0  0.2307273932539546 0.109375 0  0.2269693349086677 0.8972169952739968 0  0.1953125 0.8671875 0  0.162762385654881 0.6943720653954724 0  0.161588388430844 0.4440475151025772 0  0.2309500035219089 0.390625 0  0.2299311249500424 0.7955318348720017 0  0.02413306936009103 0.09948394181876646 0  0.09948394181876646 0.02413306936009104 0  0.1330536118107118 0.3370263238470877 0  0.1248085171568627 0.6658847783905228 0  0.1248085171568627 0.4158847783905228 0  0.1449811166772675 0.6384219919056187 0  0.1453180229233392 0.3903903978433153 0  0.09683485463150776 0.3822000850447938 0  0.09683485463150776 0.6322000850447937 0  0.223427517855915 0.4719270744719414 0  0.06546557658678889 0.6423413858921275 0  0.02224001017440792 0.5800747442977685 0  0.05437297849869319 0.3256533714011888 0  0.06877150140910145 0.3458900515631618 0  0.05106406938652892 0.3637940165204562 0  0.191795031
[...]
<PointData  Scalars="f_15210"> 
<DataArray  type="Float64"  Name="f_15210"  format="ascii">1.8111038812868128e+02  2.6693865986778889e+00  4.0323432483945538e+02  3.3726301565317214e+00  1.4447156692043091e+01  8.8898556292034627e+01  1.3285405589284638e+01  3.6040939820745756e+01  1.7635377504137585e+02  3.3307366935327595e+03  1.2694020446500697e+02  6.0777878964817880e+01  9.8956664745112626e+00  5.1932318503255104e+01  1.7112234782602468e+02  5.0199087280878678e+02  2.0836779516347125e+01  3.2472967592603908e+02  2.7599573168495526e+03  2.3438497020426624e+02  5.1424692449535596e+03  6.6853376323250430e+01  1.4384673171492682e+02  2.6396755196620343e+03  3.5176874462780916e+02  4.0060196629694275e+02  4.0999104457547702e+05  3.4014389328489792e+03  1.2429408883027969e+01  1.4161275977162672e+01  7.3593728756231741e+01  9.9153964227894008e+01  1.1303523167013782e+03  1.5014667595342235e+02  1.5370827521001486e+03  7.8234864711379612e+02  3.4962780469447068e+02  1.9124394140905957e+02  2.1428254724117991e+02  1.3399313589892378e+02  1.7926498924182060e+03  7.0278702800619376e+03  6.4903467620476547e+01  4.2340546748934525e+04  2.6824811462367605e+04  3.3348182677294967e+03  8.4365451066110813e+02  9.9993483983241986e+03  4.7219953001939630e+03  4.3426933136641559e+01  4.8706834695461941e+02  3.1079000663705995e+02  1.4535159517757589e+02  1.4503922191585889e+02  9.5030729340574709e+01  5.0335333962345047e+01  1.6679677624198575e+02  9.6323400364568414e+01  7.1531825418050148e+03  7.1348866976868931e+02  9.1945199387693179e+01  2.8284729264863026e+03  2.0603515202789207e+04  2.3390533896766087e+01  1.1209245884905743e+01  4.0598437973143739e+01  7.5672963100979311e+00  2.3334064268618394e+02  1.0902603234586431e+02  4.2133157360770747e+02  2.6016296264230918e+04  2.8070854677819727e+02  7.1091634215842831e+01  1.4163649744111619e+03  4.0518865682459250e+02  6.1063705995423159e+04  7.7794762029430785e+02  6.3138794549985198e+02  1.7873165299325192e+03  2.0895593517875172e+03  1.1709160516799334e+05  6.6147357651390644e+02  1.4028667384733708e+03  4.6194004711944748e+04  1.6664999570519838e+03  1.9608813088358179e+03  1.5315054553765806e+03  5.7184363656638343e+03  6.4142537764935661e+05  1.0157001320222752e+05  1.8256601291201088e+02  8.3866233655757037e+02  2.9628732973841857e+03  2.6869183541217772e+03  6.6983685058577942e+02  2.8329211424058662e+03  1.7250687577588349e+02  1.8525092507308291e+03  1.9743314233299323e+04  2.5444568560696484e+02  2.2608009034421998e+03  1.2527688538469122e+03  1.7268164521883980e+02  1.0498557333511561e+04  4.0755704507443814e+04  8.6027993119684459e+02  2.4804026934046292e+03  2.0593054179071610e+03  1.0506317265076693e+03  1.7846304811749175e+02  4.4925064465982416e+01  9.0499683559364442e+01  5.5496047130181103e+02  3.4385861425596495e+01  4.0544594507326771e+01  7.0657754437103677e+01  6.5812910556519992e+03  3.7195218637614385e+03  1.1647975590415471e+02  2.1645994660862498e+03  2.5321789525771069e+02  1.1518557098039727e+02  1.0541732980942961e+03  2.4259155947016038e+02  9.9330970750512074e+02  1.5533666474636449e+05  2.8766267378204196e+02  6.2466277123409827e+02  3.9167275453220918e+03  6.7468818795214452e+02  7.1717524308712746e+03  5.4359057803043731e+02  1.2709490786367013e+02  1.9762005643765983e+05  1.5400581722855089e+01  1.8406244589783987e+03  2.1754879271600394e+03  2.3196357971473390e+04  2.4630526857714699e+02  5.0066051127955598e+02  5.3401670000877639e+03  7.1300063322647190e+02  5.3199453030858535e+02  1.2426761510329152e+03  4.0361951120445170e+04  7.8282593240651954e+02  5.0776925858011219e+02  9.5718329623466093e+02  5.6063198655812019e+04  7.7464240807995864e+01  3.4136349112495744e+04  2.3457614062576451e+02  1.3673957220746535e+04  1.0326517442770719e+04  6.9033144228466281e+03  3.3992247744382837e+01  2.3898857523644718e+04  1.3835782842754367e+02  1.0316784026288221e+02  7.9125302416751966e+00  1.7821408387865010e+03  7.7107301097433421e+01  1.4255972648061907e+03  4.1307534598984785e+04  2.5379039007479541e+03  1.6675648470024538e+02  3.3459656304505961e+03  1.6043371579558772e+04  2.5171791785224149e+05  3.9964629952277176e+02  6.5283830691538810e+01  3.9128258540598893e+01  6.3400704187717402e+01  1.0738083244951659e+02  1.5007026591189034e+05  5.8076018120260028e+02  3.4152870576751025e+02  4.1909566523513939e+02  5.1663731947527106e+02  6.7630265138921800e+02  1.1220135174493180e+03  4.8080661235909986e+02  2.8391390397200058e+02  8.0962872114506411e+02  1.5643451061212950e+03  4.1942553351025745e+03  2.4495953115925630e+02  3.2372604209918668e+03  5.1528356719978092e+02  2.6382329127125995e+04  5.9293594347154681e+02  1.9219953579021633e+03  2.0946253154685803e+02  3.4055816747281315e+04  1.1762028796536650e+02  1.1899871084019983e+02  3.0168657264254376e+04  2.1358931891494240e+03  8.0054959278367818e+01  3.2850179377680682e+01  6.8526025702356719e+01  4.7642612899015667e+01  1.3084355121722627e+05  1.1448867629408431e+01  1.7299711321501421e+04  1.6286924798801492e+05  6.5273332742116727e+04  1.5728194438854187e+01  8.7055103705280615e+01  7.0744508818713882e+01  1.2279103884549367e+02  5.1645358539471559e+01  5.0166035123374357e+01  2.2994591394409237e+01  6.0391877709728089e+02  7.9599532702222905e+03  3.4874737124421051e+02  1.6455513155340802e+02  2.7091650471442977e+03  5.8497288886286849e+04  6.8221720441807736e+02  6.3074113239227399e+03  1.2852256170609637e+03  8.8878412053707166e+02  2.2483926856345734e+04  2.6284821620733842e+03  8.0581938661910078e+02  9.3402350065633499e+01  7.9236536259587837e+01  5.6113369323778552e+03  6.2644358310388634e+04  2.4703685269612542e+04  9.0329409427070786e+03  5.1252698630623363e+03  5.9243166704667965e+03  2.6176868281458536e+02  1.5202420564143584e+05  7.6003616786847516e+01  1.1560836111720444e+02  4.4686288476579039e+03  2.3879734754736728e+03  8.5213601547026690e+02  5.9840078654937752e+03  3.5910016676831191e+02  1.7240855793868217e+04  2.8030260445772292e+05  1.7186016322080040e+05  7.6866285094323566e+03  1.1949052013608305e+04  4.8519151600908685e+02  4.2608365753433662e+02  1.4455251674134360e+02  6.9890839983876413e+02  1.3620222444557666e+02  2.6629808242957188e+04  4.8584416395841572e+01  2.2965742043010690e+02  7.9609308341131748e+02  9.3729782425679059e+02  1.6796061082080874e+02  1.7729406026810811e+03  1.3042676607752543e+02  2.5463594761580640e+02  2.5807477199579498e+03  1.0738821842457762e+03  1.8587673330137903e+02  2.1212222246410579e+02  2.3911473249443839e+03  1.0968463732297373e+03  4.5026642509090825e+03  7.1494963176291355e+02  1.7548810933692842e+06  1.5706027809434233e+03  2.2021521170718656e+03  2.2095766670796269e+02  1.2780989148425715e+03  6.8969034514503250e+01  3.7357850128424489e+03  3.6157257289050263e+04  2.0965085447903266e+02  1.8434988291835566e+02  4.4110936783187708e+03  1.8976373419521326e+02  6.4573894769651146e+04  3.5925914677203798e+02  1.6055940862519581e+03  1.7287264642846148e+04  6.7518274016909545e+03  1.6891806849178829e+03  2.7257207591840080e+02  2.1333125351516429e+02  5.4193511555940539e+01  2.6132045069038554e+02  2.3076628871574539e+02  4.4297045979823582e+02  2.0570568530842704e+02  3.9076568872689340e+03  7.3875079611096126e+03  2.1773965667956209e+03  2.6460586741149973e+02  4.0750114377265572e+02  1.7674399870170209e+03  8.3843041835729309e+02  1.2687686147533154e+03  5.9212407264810772e+03  1.3393907257812716e+04  8.4856547715558860e+04  4.6582839595473649e+02  3.0184414833259107e+03  8.6300147170916462e+03  3.2320248095187981e+03  1.2827727784755389e+03  3.7757217987951270e+05  1.2912333789575714e+03  3.5518531027025507e+04  4.1367296006101202e+02  1.0048656873967149e+05  5.4971624153720643e+02  7.3366049279278595e+03  2.4679158824596998e+04  5.7325245112066195e+03  5.9686855466890904e+02  1.2726262850356134e+04  7.3035328148093197e+02  2.9388566073624514e+02  8.3998657529322054e+02  4.4048583489739503e+03  2.1888421785666119e+03  5.3235880480234046e+03  3.4869963192266010e+02  6.6438074608877500e+01  2.2552042096043893e+05  1.4232377487357386e+04  3.9685621162057339e+02  1.1917490541140174e+02  1.5162291358476730e+03  1.9129520742061822e+05  1.4691476557172968e+04  3.1993183705323072e+03  3.0740193064493815e+02  1.2619049832764509e+04  1.2791033183330261e+04  1.4492261441036518e+02  2.4276735570654596e+03  7.1138843928852089e+02  2.3419575251593401e+03  2.0249068456315060e+05  2.1038600088271812e+02  1.2431953865594023e+03  1.3251096769257724e+03  3.0147802067157949e+02  2.3792703410849381e+03  9.7021215553471620e+02  4.1853833288299020e+03  1.3934444134807791e+02  2.7407576117903613e+04  1.4146734192470647e+04  7.0586441305024607e+02  1.8433775038761854e+02  3.3927682816579771e+04  5.0481355619105523e+02  9.5091548096186932e+02  2.4720130032803740e+04  1.1012562097080465e+03  2.4136082266620297e+03  3.5378308211875818e+04  7.8673990349837609e+01  1.1629441121749314e+04  2.3727577225431332e+03  6.7351905506744367e+02  5.9410438794266997e+02  2.4065792497518530e+02  1.2840495155454164e+02  9.5758550668004872e+01  5.3635827509496421e+03  2.2775150665075770e+02  2.5987431378830257e+02  1.2411934224336614e+04  8.6106942482929369e+01  1.7165775514668019e+03  2.3742994353208738e+02  2.0915615181950403e+02  3.6393008753554612e+04  2.7896417641158173e+03  5.2290214335284028e+04  2.9476175978717656e+03  5.6676336723567420e+03  6.8952097623621585e+03  1.1634253649527259e+03  1.0463975875216511e+03  1.9470898273907110e+03  8.8686487349916348e+01  7.0691852959265680e+02  1.6112283274890249e+03  5.9446096077553535e+04  2.4362013992453803e+03  5.0440062378640105e+03  1.3491933736844267e+03  1.7527226623385792e+02  1.5927672169357462e+04  1.9588103814312174e+02  6.3235847003379400e+04  1.3400641568830169e+04  1.2335178086273472e+03  7.6215736436131834e+01  8.4903240756730531e+02  9.2735808971871256e+02  1.6623840813611613e+02  1.1426784742955316e+02  7.2331859534100309e+04  4.7871360039785509e+02  6.6058666378257176e+03  2.1034036108644190e+02  5.5954868288162061e+03  2.4311779098333074e+04  1.9774225374330294e+04  9.2255349838593318e+01  1.6285351284660326e+05  1.4401059588512051e+03  6.9614659320891815e+03  4.3228788520221542e+02  1.7473673444597151e+02  8.1675155811795136e+01  1.6967471880145276e+01  4.0140965088625821e+03  2.7009240881885089e+03  2.4467408403710451e+03  2.2169295023227871e+04  6.9763701162141592e+02  1.6972933884948654e+02  3.1353074392714012e+02  1.1262784876549294e+03  1.0660874455731273e+02  1.7595491578975492e+04  2.2229353945806793e+03  9.5363315419497314e+02  1.5720718730822273e+03  1.9481951620678751e+03  5.1243204787216405e+02  7.1589283022067721e+03  3.3335558288949909e+02  4.6598348818536933e+03  2.7421497697217347e+02  6.5968504809947990e+03  4.5637656825092708e+04  7.7636229813912195e+01  6.1616434458888343e+03  5.6183777342422582e+02  2.3005035386743666e+02  4.3694927257811387e+03  1.3893503200591761e+02  1.7125144141630448e+04  6.3122225951454948e+02  2.5475673904546602e+02  6.9291913102336102e+03  6.3361956579604237e+02  9.4728867114016978e+01  2.5113476090062100e+04  2.6185929021111083e+03  1.1773340486249974e+03  4.2084055780663738e+02  1.0296529978260558e+03  4.5256379510834740e+03  1.1953101684014959e+02  1.3058266706470024e+03  3.4815616710969243e+02  4.4646227294862738e+03  9.3257202392952750e+04  7.0537558148375629e+03  1.0160765936266009e+02  1.4898753266593975e+01  1.6294790143219223e+02  4.6680793843911679e+03  7.3227982908351328e+02  1.9379646287411157e+02  1.2722002016382270e+02  7.5782369747021119e+02  6.8864482582985904e+04  6.8007241742358030e+02  1.3371487754897996e+02  7.3183484589177078e+02  4.3768050285865447e+03  3.9389164979395709e+03  2.6269111510763931e+01  1.1219316406225528e+03  9.5887876709617458e+01  9.3915893354996740e+02  3.9420744543481524e+03  5.1475202715436149e+02  1.3913596033260397e+04  1.1712035383406257e+04  1.5264238483931399e+02  2.0790041052952444e+02  2.3118596091494324e+04  2.0725719960373470e+02  5.1038147837230565e+02  2.5889288698178852e+03  1.0069323330289416e+02  3.0579742373894296e+04  6.3478541901630524e+02  5.7706528127435859e+03  2.7208734780538367e+02  6.8970861700984256e+04  1.0352170130758894e+05  8.3354920306447139e+02  2.8125636637278631e+03  2.0901720247370799e+03  8.9874659570664153e+04  6.5105696232313885e+03  4.2379051029935017e+03  4.8913713374732737e+02  4.0074030093665187e+03  2.8975407615740903e+02  7.6907381631908283e+04  3.6362720704342973e+02  1.2921900484421953e+03  1.5425460730671142e+02  2.3370334680727074e+03  1.3893929800076435e+03  6.9198900799101682e+02  4.0910830440497699e+02  4.6981821257590417e+02  7.0088359035015756e+03  7.5069911894240249e+01  2.3257895248487384e+02  1.8033591589456475e+04  6.7221111031287236e+01  9.2593929773734919e+02  3.1956009551740920e+02  2.9906180749178520e+03  2.1374739677213284e+05  2.2611405477691983e+03  9.5353249513605133e+03  7.1080228811855739e+02  1.1649262739535554e+03  3.3992908468574351e+04  4.7597279610783396e+01  8.5264481492620700e+02  4.4259300558885036e+02  2.9377224735497980e+03  2.1207326960844216e+02  1.0316383722517908e+03  1.7973853349716173e+03  2.0355032815528872e+01  1.4547391102108641e+03  1.2860994599149326e+04  2.8875533312238913e+03  1.2658318141327438e+04  3.0158274576817270e+01  1.6752417718332899e+02  1.1041443942354801e+03  9.5597065590756131e+02  8.1544226132042922e+01  1.5252951318796427e+05  2.0197779981785025e+03  3.2746112901316809e+02  1.3893937615034238e+02  1.9295761495845562e+02  1.0988198211247518e+03  1.1411283018102023e+02  1.1645386460873701e+03  5.3585789346308911e+02  1.9082570339331280e+04  7.3850294749424138e+03  4.8587095164805879e+02  5.4779163704451605e+02  2.8058827584403218e+02  7.0005875538443149e+02  1.0694948704741527e+02  1.0337888556885036e+02  1.0066341428285331e+02  2.2483607537844819e+04  4.4485394466951584e+02  1.1531260047566793e+03  8.4338015532652335e+03  2.5720227124282546e+03  4.2697777906118654e+03  7.7290528557601306e+02  1.3425238995858733e+03  7.3348460305893843e+02  3.9092383742959541e+03  2.9143587188998151e+02  1.3186264012262461e+03  8.6267243981546228e+04  5.4082700279222479e+02  2.4853820243150873e+04  3.5271030566211965e+02  8.3423144133790413e+02  5.1378552509190783e+01  6.5021348584625343e+01  1.1327876162804723e+02  4.0739694299826388e+03  4.0572644336717126e+03  8.1011539119936316e+01  1.1259898139131114e+03  2.2106522134533825e+03  8.8969752376130382e+03  3.7695591278641280e+02  1.9021416541508879e+02  1.2827460912750266e+04  5.9949798733927696e+02  1.8379243071495337e+03  3.8631975261493994e+02  1.3517374567025277e+02  9.2621976927249719e+01  2.3313033595596048e+02  3.5943298470974325e+04  5.4346507979601665e+04  2.1653226654590864e+04  8.9788340065557222e+01  6.2184367967612625e+03  1.7040563250293517e+03  1.1947489611993372e+01  7.3660564289648004e+05  8.1086309497399360e+05  2.2923604942913162e+03  1.3769446963690137e+02  2.2638480130987359e+03  4.6884981167938777e+03  3.5055679097919297e+03  4.9323807673537718e+04  1.0492418335519762e+04  2.9941257144887135e+02  4.0390310282258324e+04  2.1087917629288345e+03  4.4525653092937393e+05  1.9466240407625321e+03  5.3510899387297286e+02  1.3231197213863794e+02  2.3834731654561438e+03  1.0319282512965149e+03  3.4838696394082413e+04  4.6045354287584516e+01  1.0593437864676736e+05  1.9486614138416400e+02  4.7970987192437951e+02  5.7158856470346075e+02  2.4924188089585499e+04  4.9280913178744568e+03  1.6925603625180844e+04  7.7608198208203066e+02  7.4376789731972976e+03  9.9087835282482331e+01  1.4457806149878001e+01  3.7658663000670981e+03  2.3209156776019878e+04  1.3071166404036694e+03  3.0324069771649761e+02  1.8507531229329351e+02  1.5903989406230604e+01  1.5170910649711707e+03  2.6955902735126443e+02  9.0585809420207079e+02  9.4270347097199340e+02  5.2934777848283757e+03  2.6528382441470087e+04  1.4854217541603507e+01  1.7709304364369804e+04  2.7169211680911819e+05  2.0328427891517586e+03  4.6097681105195028e+02  9.4285424524527656e+01  1.4851668945317782e+05  9.2044448267293592e+02  2.3810622949800763e+03  2.6588258234801065e+03  5.3223479214970266e+03  8.6372295532613180e+02  3.7736371578284178e+02  4.4869396044048626e+03  8.1482910855123109e+03  1.4125811973157442e+03  2.8631698212962397e+03  3.0529950954623007e+02  1.5269583891557206e+03  3.5697549021934856e+02  4.1592689411697920e+03  8.7639536555530285e+03  2.2183764845535497e+03  1.8296473670390281e+01  1.7361291855342891e+01  4.1887471866511117e+02  7.8252724957562241e+03  1.6757728032246630e+03  2.7206915596949827e+01  6.0823698255800787e+02  3.4863394357533389e+03  1.0571977861622868e+03  1.0239252471239044e+02  4.0166811657565063e+02  2.7448886946437824e+01  9.4299107019360846e+01  4.2584920578273859e+01  1.6955785387200955e+01  1.3563073909007530e+01  3.2068397696488091e+02  3.9248646744253756e+03  2.0195954580715874e+01  5.1710638496641445e+02  5.2137692738821933e+01  1.5613096301434500e+03  1.9802644426353078e+02  3.7403846779964197e+03  1.9078656197596575e+02  3.6590677559844966e+02  1.6884422510403451e+03  8.7422723364705266e+05  5.1350394212776905e+01  2.9638316436326670e+02  2.4708671572702798e+01  2.1806280367811664e+03  3.5904980293083855e+02  4.0910859771699359e+02  1.0924726310351354e+04  2.6175265230003679e+03  2.2954319300738433e+01  6.3622502514254002e+01  1.4809194573916939e+01  6.4225268774340555e+02  2.8935976424841874e+02  6.0629017327163318e+01  1.6058275058988457e+01  1.6985243318275895e+03  1.1946938390261042e+02  3.2752519617365522e+01  1.6398683294428334e+01  2.9450162578446070e+04  3.0696000741062647e+01  1.5251266780413209e+01  7.7591157054431892e+02  1.0037769539110353e+03  3.9112619220991394e+02  5.0736821154012063e+02  3.7391007284182001e+03  5.1873480771809648e+02  2.3746065992835958e+02  3.7075803411891153e+04  9.9722203680674756e+03  4.2557199064896384e+04  1.3119978158298547e+03  1.2464372483745719e+03  7.2074839964593266e+01  1.7543893525072593e+02  1.4000648258360457e+03  1.0470480170399151e+02  1.7953029803275192e+02  6.6654024162549263e+02  1.4113545899504793e+05  4.1074037864094811e+02  4.7991290835167553e+02  6.4934086832462924e+02  2.6633168415782177e+02  2.6039149975345867e+03  2.8642302433613133e+02  1.1859484975210689e+03  2.2432929280965945e+02  3.4894952136769326e+05  1.5824049590366624e+03  1.1163284291846520e+02  7.6401746084302454e+02  2.5994656123930807e+05  2.3832933307933848e+02  6.9330271588546475e+02  1.6995730201575503e+02  1.6907816687677218e+03  8.7562183692623171e+02  1.8171870868234512e+02  1.3451041907707960e+02  2.8370906465182651e+02  2.1465746892919077e+02  1.8445797177447868e+04  1.1636875570715276e+03  7.8445393162120558e+02  1.0859424203072599e+02  4.5556991495246148e+03  7.8040751066113739e+02  2.9564818151828376e+03  1.8454520355681163e+03  1.1177977499346371e+03  6.3532522412171911e+03  1.0517340116371626e+04  9.2300459243568071e+01  2.0305314371805866e+03  5.7432925622518553e+04  2.5913700000139829e+02  2.1557688308251090e+05  9.9577471425790336e+03  1.3340408238660425e+03  1.3597014642854635e+03  4.4665166768828499e+02  2.4245219215673416e+02  7.3397844244578508e+01  1.6810138878195223e+03  1.8522239202745702e+03  2.0081740153778687e+03  6.7744220785147684e+02  2.0918436625054034e+02  1.4507298949461058e+03  2.7800008613981143e+04  5.1548595216250051e+03  9.1844426149844381e+01  1.4520905047119751e+02  1.7462573451898299e+02  1.5389143778867294e+03  1.6979544362004544e+03  1.6895346955197360e+05  8.7314287055395971e+02  2.7450484221342551e+04  6.5162765926645494e+04  2.0856176712418471e+02  1.4946173927432747e+02  2.5240791205764467e+02  3.6928739059274264e+01  1.0926519974779567e+03  8.5215253775719284e+03  2.2452991372148274e+04  4.1463960316032706e+02  8.5144031437147642e+03  2.5428212424962146e+02  1.0832291993477616e+03  4.1605048606599027e+01  1.0015369081318751e+03  2.8401835389659141e+02  1.2750923632232509e+05  4.4723750723342428e+03  7.1465056752086311e+03  7.7156238315113143e+01  7.3811013828022478e+04  2.5267098564887763e+02  6.81468246395