<?xml version="1.0"?>
<VTKFile type="UnstructuredGrid"  version="0.1"  >
<UnstructuredGrid>
<Piece  NumberOfPoints="6498" NumberOfCells="12418">
<Points>
<DataArray  type="Float64"  NumberOfComponents="3"  format="ascii">0 1 0  0 0 0  0.125 0 0  0.125 1 0  0.125 0.5 0  0 0.5 0  0.125 0.25 0  0 0.25 0  0 0.75 0  0.125 0.75 0  0.125 0.125 0  0 0.125 0  0.125 0.625 0  0 0.625 0  0.125 0.875 0  0 0.875 0  0 0.375 0  0.125 0.375 0  0.125 0.3125 0  0 0.3125 0  0.125 0.4375 0  0 0.4375 0  0.125 0.5625 0  0 0.5625 0  0 0.6875 0  0.125 0.6875 0  0.125 0.0625 0  0 0.0625 0  0.0625 0 0  0.125 0.8125 0  0 0.8125 0  0 0.1875 0  0.125 0.1875 0  0 0.9375 0  0.125 0.9375 0  0.0625 1 0  0.0625 0.78125 0  0.0625 0.09375 0  0.0625 0.65625 0  0.0625 0.53125 0  0.0625 0.40625 0  0.0625 0.21875 0  0.0625 0.90625 0  0.0703125 0.71875 0  0.0703125 0.15625 0  0.0546875 0.46875 0  0.0546875 0.59375 0  0.0625 0.3385416666666667 0  0.0546875 0.84375 0  0.05338541666666667 0.2786458333333333 0  0.046875 0.046875 0  0.078125 0.953125 0  0.03125 1 0  0 0.96875 0  0.09375 0 0  0.125 0.03125 0  0.0375 0.953125 0  0.08749999999999999 0.046875 0  0.125 0.28125 0  0.08857717803030302 0.296875 0  0.08456307870370371 0.2527488425925926 0  0.08432904411764705 0.8157169117647058 0  0.125 0.78125 0  0.08432904411764705 0.4407169117647059 0  0.125 0.40625 0  0.04067095588235294 0.1842830882352941 0  0 0.21875 0  0.04067095588235294 0.7467830882352942 0  0 0.78125 0  0.04067095588235294 0.6907169117647058 0  0 0.65625 0  0.04067095588235294 0.1282169117647059 0  0 0.09375 0  0.09230469604198556 0.4788378714055325 0  0.08432904411764705 0.5657169117647058 0  0.125 0.53125 0  0.09230469604198557 0.6038378714055325 0  0.09230469604198557 0.8538378714055325 0  0.125 0.21875 0  0.04036458333333333 0.3723958333333334 0  0 0.40625 0  0.125 0.34375 0  0.09223090277777779 0.359375 0  0 0.34375 0  0 0.71875 0  0 0.15625 0  0.03125 0.640625 0  0.03125 0.234375 0  0.09375 0.921875 0  0.03125 0.796875 0  0.09375 0.765625 0  0.03776041666666667 0.8776041666666666 0  0 0.90625 0  0.03125 0.421875 0  0.03776041666666667 0.5026041666666666 0  0 0.53125 0  0.08723958333333333 0.1223958333333333 0  0.125 0.09375 0  0.03125 0.546875 0  0.09375 0.515625 0  0.08723958333333333 0.6848958333333334 0  0.125 0.65625 0  0.08723958333333334 0.1901041666666667 0  0.09285237672216495 0.6388297534443299 0  0.09120871566215796 0.887895068675684 0  0.03697337403288202 0.3117847356544165 0  0.03125 0.078125 0  0.03125 0 0  0 0.03125 0  0.125 0.96875 0  0.09375 1 0  0 0.28125 0  0 0.46875 0  0 0.84375 0  0 0.59375 0  0.125 0.15625 0  0.125 0.71875 0  0.05859375 0.625 0  0.09203062351730669 0.3280299106084038 0  0.125 0.84375 0  0.125 0.59375 0  0.125 0.46875 0  0.09375 0.4106043198529412 0  0.09375 0.2226289308756895 0  0.125 0.90625 0  0.03125 0.9082327178030303 0  0.09375 0.0917672821969697 0  0.03157790017660633 0.3424870324872683 0  0.02669270833333333 0.2643229166666667 0  0.06829273545144836 0.4982032167254387 0  0.06675762813866792 0.8709439182360006 0  0.05576041429493017 0.2497890636858682 0  0.02734375 0.609375 0  0.02728074596774193 0.5779989919354839 0  0.02734375 0.453125 0  0.02734375 0.828125 0  0.09765625 0.734375 0  0.05493844330495356 0.4393276533475232 0  0.06816449879002234 0.7535164975800447 0  0.05493844330495355 0.5643276533475232 0  0.05493844330495355 0.8143276533475232 0  0.0299965987454304 0.71875 0  0.02999659874543037 0.15625 0  0.0813426135756993 0.3853350519425603 0  0.09765625 0.1637369791666667 0  0.06467653953877486 0.310910294982067 0  0.02169857614656033 0.203125 0  0.02524899995375509 0.1051854999075102 0  0.09975100004624492 0.5426854999075101 0  0.09975100004624492 0.7926854999075101 0  0.02524899995375508 0.6676854999075101 0  0.0216985761465603 0.765625 0  0.04823956951149876 0.928748603739466 0  0.046875 0.9782291666666667 0  0.0671875 0.06614583333333333 0  0.078125 0.02177083333333333 0  0.02127436155913977 0.390625 0  0.1006667715324385 0.7079051314317674 0  0.02433322846756151 0.8545948685682326 0  0.02433322846756151 0.4795948685682326 0  0.06536484344506666 0.3645784953935692 0  0.1057502727878818 0.265625 0  0.09765625 0.97265625 0  0.07158549886191198 0.9769868329539707 0  0.02083333333333333 0.046875 0  0.046875 0.02083333333333333 0  0.1015625 0.9453125 0  0.105773175265869 0.578125 0  0.105773175265869 0.828125 0  0.1057731752658691 0.453125 0  0.02403140427485829 0.9326371297403401 0  0.03105806221105027 0.2882216937203155 0  0.02269345238095238 0.02269345238095238 0  0.02265857126276695 0.9773414287372331 0  0.1023414287372331 0.02265857126276694 0  0.1050021911266925 0.1399031244962927 0  0.1004761981537389 0.6631336343087164 0  0.01789242097701151 0.515625 0  0.1053197095586611 0.3892428214300389 0  0.1071947968863412 0.203125 0  0.06483609068627451 0.1801470588235294 0  0.06307444852941177 0.1182598039215686 0  0.06307444852941178 0.6807598039215687 0  0.07134406133247276 0.9276243773350545 0  0.107023448305187 0.110594895408122 0  0.01797655169481303 0.8894051045918779 0  0.0896290604425302 0.06945979794392823 0  0.01643913299282548 0.359375 0  0.04012690145502644 0.5255663029100529 0  0.07724934918388508 0.2756598204935206 0  0.04333510829975742 0.3946172288681074 0  0.04382482319049504 0.7689316254597454 0  0.04078217840056862 0.2143768568011372 0  0.01872387163348762 0.3244028916671824 0  0.0195742471369305 0.6987325881931771 0  0 0.734375 0  0.0195742471369305 0.1362325881931771 0  0 0.171875 0  0.125 0.078125 0  0.02106088043659297 0.7382013359382263 0  0.02106088043659297 0.1757013359382263 0  0.0497677502679564 0.1647704182208795 0  0.1041623508625682 0.2422658327302558 0  0.125 0.421875 0  0.1039703258643078 0.4303318325659762 0  0.05877296560275284 0.7012639504860959 0  0.0501545493727152 0.727123133991979 0  0.06896549282708588 0.8291595335799418 0  0.06896549282708588 0.5791595335799418 0  0.05561978654147531 0.1989614820041244 0  0.07032296246331207 0.4254414436261769 0  0.05877296560275287 0.1387639504860959 0  0.06896549282708585 0.4541595335799418 0  0.07859817667287269 0.7952004746267884 0  0.07859817667287269 0.5452004746267884 0  0.1054638298647563 0.05657430832458488 0  0.0578125 0.9598420210926695 0  0 0.953125 0  0.0671875 0.04015797890733056 0  0.07649432244045254 0.2338267641856086 0  0.04866265018175087 0.3532402205496085 0  0.04529605546323741 0.670940902672186 0  0.04529605546323739 0.108440902672186 0  0.07114475473057193 0.6075619837836785 0  0.1053722369453574 0.2857608974857906 0  0.1041142204473487 0.3109216152144918 0  0 0.296875 0  0.01867881746150348 0.3038534200233671 0  0.05524134160257502 0.5129465446468287 0  0.06099431830938445 0.3844706742360927 0  0.1038714447569958 0.4968053895139916 0  0.07261836495365119 0.8520669608573707 0  0.125 0.859375 0  0.1042195743166846 0.871267532383033 0  0.1042953726576324 0.6211504246078988 0  0.07222987402884687 0.4785156251683452 0  0.125 0.328125 0  0.125 0.984375 0  0.08224716045754427 0.65550416509288 0  0.07174465449286124 0.6392252775633923 0  0.104342652316052 0.903997804632104 0  0.08499844918863737 0.142434120427652 0  0.0844985192851985 0.6214602780221394 0  0.04739583333333333 0.06666666666666667 0  0.05529012802864505 0.8874707890510186 0  0.07963297040422486 0.2085407376975881 0  0.1058968411519645 0.6894306991298484 0  0.07766817664565827 0.1056561296393557 0  0.1057560771716062 0.1835282231549565 0  0.07773382092984268 0.7013018062982547 0  0.04305452277962929 0.4840923655564813 0  0.04305452277962929 0.8590923655564813 0  0.01875 0.950780111105415 0  0.07024795506527168 0.2930300420408972 0  0.0478397200304771 0.2965328103930845 0  0.05121648255071443 0.3237514478060962 0  0.08754502715293848 0.4598932538963194 0  0.08754502715293848 0.5848932538963193 0  0.08754502715293848 0.8348932538963193 0  0.0809015012254902 0.1712526807598039 0  0.01829563924765609 0.4971063294237891 0  0.125 0.640625 0  0.1084926420285044 0.3359375 0  0.1063049178180489 0.07791358842139073 0  0.07632685032323469 0.08189787709891407 0  0.07651225432210323 0.3501759166473921 0  0.1069221282820671 0.370738774849029 0  0.1067803879682793 0.8097224268749272 0  0.1067803879682793 0.5597224268749272 0  0.0732493355785593 0.8876902320260575 0  0.01502467351849249 0.9167032210578127 0  0.08615695482809546 0.4994098249368031 0  0.125 0.890625 0  0.02098784564269657 0.8719694826931684 0  0.08605728693236238 0.7487942702415453 0  0.125 0.484375 0  0.06046421450728726 0.9420052721508373 0  0.109375 1 0  0.08004180148148797 0.777271102962976 0  0.04883736512240355 0.2304872302448071 0  0.04561230035288119 0.7865371007057623 0  0.04586777931655463 0.4120480586331092 0  0.04802334735844737 0.5413591947168948 0  0.08580129279582045 0.9374318963979102 0  0.01822916666666666 0.06510416666666667 0  0.01726601304092138 0.6517195260818428 0  0.01726601304092139 0.08921952608184278 0  0.04468848999483189 0.6528105200103362 0  0.01827879140158732 0.7837549171968253 0  0.01825288449808249 0.408806731003835 0  0.03971354166666667 0.6236979166666666 0  0 0.421875 0  0.015625 0.4296875 0  0.01816132012761036 0.5339898597447793 0  0.01888020833333334 0.6263020833333334 0  0.04468848999483186 0.09031052001033626 0  0.01827879140158732 0.2212549171968254 0  0.07457391546693767 0.5163353309338754 0  0.125 0.921875 0  0.1077339869590786 0.5267195260818428 0  0.1077339869590786 0.7767195260818428 0  0.1101351348842065 0.759332769768413 0  0.08233437225029967 0.9056437554994007 0  0.0184015012254902 0.2477405024509804 0  0.01883462974062772 0.5611067594812554 0  0.01888020833333333 0.8111979166666666 0  0.1086095656153081 0.3533788510713674 0  0.06562230895048585 0.7359098273357195 0  0.03710573475337388 0.8426414021221816 0  0.03710573475337388 0.4676414021221816 0  0.125 0.671875 0  0.125 0.609375 0  0.1076303706657158 0.4704816551506308 0  0.1095065661265748 0.8515625 0  0.1076303706657158 0.5954816551506308 0  0.03385416666666666 0.03571428571428571 0  0.0863546556944139 0.8706926289304113 0  
[...]
<PointData  Scalars="flx"> 
<DataArray  type="Float64"  Name="flx"  format="ascii">3.0852561720500589e+00  3.0324908993114215e+00  3.0347272199027731e+00  3.0917683895872980e+00  2.8554153057588127e+02  6.6033394941627961e+01  1.3348108687766882e+02  5.3552668797141780e+02  5.6467534315117383e+01  8.0478834881841738e+02  2.0941230779876253e+02  1.2013665749069980e+02  1.0269128959796954e+02  8.8566336995425900e+01  1.7610987240537710e+01  1.1967456367292880e+02  3.4752180598567527e+01  1.7827497917344874e+02  2.2958273347513992e+02  1.4707465294950885e+02  1.3497364876394596e+02  6.6208773714787549e+02  1.6367238700879147e+02  3.6107538141945713e+02  5.1984121806616606e+01  4.9925380196274523e+02  7.4087825441595371e+01  2.7856890111886582e+02  2.3112901972686092e+01  1.4209452815657312e+02  1.5165882748711030e+04  4.0159762751368987e+01  2.8461888434760759e+01  3.6035440423554640e+01  4.0805968980732068e+01  8.8607239890241786e+01  2.3981015346495442e+02  1.1155565301335220e+02  2.4194403279818681e+02  1.5114080473855945e+03  1.7382366105795981e+02  2.5621582592869368e+02  7.3712699655355152e+01  5.9635312478173983e+03  1.8613592200594351e+02  1.9316943780471470e+03  6.9458484182970478e+03  3.8758811198782655e+02  7.7525207193938229e+01  6.4905180161189804e+01  4.2645484249355383e+02  1.3823952734086308e+04  6.1319236838431110e+01  1.0128031204900084e+01  1.4594115093509901e+01  1.4167091190504198e+01  8.8690468541966823e+01  6.5631867066218979e+02  1.5661414508673309e+02  2.4310626583250705e+03  1.2027448924380260e+04  5.2407902178577970e+03  1.5417524927118549e+01  7.9241455673753728e+02  2.4586900292485433e+02  2.9695697279243113e+03  9.9737350546114467e+03  1.0143768970397376e+02  1.1476624271989183e+03  7.1540163988121151e+02  1.4580477998583165e+01  3.1106276975951805e+03  2.0925654658751125e+01  2.9375342010178315e+03  8.8591983616303878e+02  5.7907775709261068e+03  1.1472413809959942e+03  5.6930559881010331e+03  6.5623957876589282e+02  1.3054790740568790e+03  1.8425521717452696e+03  4.5895039765054862e+03  1.5318585054402110e+04  5.1097550845326978e+01  4.2235156083033559e+01  2.6573421862156888e+01  1.2434187989074694e+03  1.5019238243802818e+03  1.8984289040930705e+02  1.6822644697133157e+02  4.5241914591146233e+03  4.9556303439504554e+03  5.4369084564748800e+02  3.2747931637231966e+02  9.6203610051932731e+02  2.7661743671231045e+02  1.0748777424184658e+04  3.7070023202206292e+04  1.4299576515184676e+03  1.1727492677050970e+04  2.0157026509357021e+02  1.4608299615460977e+04  2.0022010576929931e+03  1.3028751801729124e+04  1.2456637014382698e+03  9.5874787175361944e+03  5.8619504851910215e+03  2.0497759067922971e+01  2.5966260117977828e+04  3.7730602832532512e+01  3.9102218025181429e+01  2.5819716810101450e+01  3.9464686437208996e+01  9.6348518185566618e+01  1.8519221146613660e+02  1.9629755164874757e+02  3.4620422589694130e+01  3.9717564201375075e+02  6.9219939722316340e+03  4.7058899914743975e+01  4.4419873332176017e+01  2.5264558137345681e+01  9.1886539863753273e+02  9.2198201993581199e+02  8.4556240552385120e+01  1.0941739151672287e+02  7.0039306514321943e+03  1.3611177533721198e+02  6.4685518433217885e+03  1.7658012311006621e+02  3.5599251806678262e+02  4.5437534152146526e+02  7.8103952035311750e+02  1.7242116761119632e+04  6.6078718582985221e+03  7.3704588142186594e+02  5.1578263966376346e+02  1.2532312772081063e+02  1.4222368074028554e+02  2.3527990699906584e+02  7.4993032529045664e+01  5.2283027037383490e+03  1.9226672758022897e+02  7.1394525258454507e+01  8.2550528334291562e+02  7.6099993083088492e+01  8.6738170369441323e+03  3.4042391475361779e+02  2.4001797346506526e+04  1.1979602046022167e+03  1.2734266585748364e+04  3.3672681398076878e+02  4.0620795215237803e+02  2.5447174381017172e+02  6.6010488454137331e+01  3.9504502264547256e+02  2.2474390947559150e+03  3.4287627673343113e+03  9.9749435454696913e+02  1.2202655838651094e+03  2.6872883590225561e+03  1.6535505460420798e+03  3.4371536146565649e+02  7.1796809140187963e+02  2.0735002861911908e+04  5.5104105275890370e+03  1.9913458099967338e+04  1.3356169596889113e+03  2.6323379868701017e+04  4.8827611391953593e+02  5.0924389960144863e+03  1.9092535644587247e+03  2.2742396077957742e+03  4.0549971203602622e+03  1.8698643420288508e+03  8.9994685498368528e+02  3.4104504381780168e+02  1.0354888625015563e+04  4.6688705089928527e+02  7.1056160507312106e+03  2.6003468602033888e+02  2.7246077619079250e+02  5.1664654478148395e+02  2.2042653397611343e+03  3.9116064048564834e+02  1.2279779430308731e+03  3.4633829476367832e+03  1.6965131082225921e+03  3.1234558805883529e+02  3.4720875360552049e+02  5.9146354043241058e+02  8.8141982319015297e+03  1.8118168774368710e+03  9.1218929271782343e+01  1.9789482228311630e+02  1.5443069485414935e+03  2.5236261928045929e+04  3.4556274867059649e+01  1.4320377904215476e+01  3.9954488023118955e+02  7.4485325348969764e+02  2.0930420150871819e+02  2.4601035298130237e+03  5.9602382068038554e+04  3.2648933386756398e+04  2.4987837951168999e+02  1.9461464551966753e+02  5.4266718968019393e+02  3.4116676424951669e+02  1.3477277844925527e+02  1.3659151899009070e+04  2.0556934198538710e+02  1.6870813349803444e+02  6.3421142709950141e+02  2.0415782304427685e+03  1.3299820860232862e+02  5.1308107098074674e+02  7.7451872155959009e+01  1.5751869668920068e+02  1.2304424283401900e+03  2.0493586873271454e+02  1.3263479765525542e+04  2.9310554138672541e+02  6.7802268613921683e+02  4.5881300540849616e+03  1.1808937996617992e+02  9.2119609113964813e+01  1.9425259277517358e+04  6.6316745057829650e+01  2.3903314798112623e+02  1.1560457989864010e+02  6.8395303954130668e+02  2.3277466991154481e+04  2.2740083790337016e+04  8.6286247573760465e+02  2.7446301577302319e+02  3.7643389665921504e+01  8.8352268387479126e+03  2.4106982485634109e+02  1.7064140569237341e+03  1.1067771023224454e+03  2.4776847929941673e+02  1.9518738336223069e+02  2.4235873032700406e+03  3.7283414066708502e+02  2.8554585463504736e+02  3.6174473644138902e+02  1.4419966222146613e+03  2.0089698053498655e+03  2.2188705492576373e+03  4.0023722178400658e+03  2.0311911803382800e+03  1.5559768012034340e+02  7.7566986309492890e+01  3.4058249929925551e+03  7.6862115009148079e+02  1.3596789447934498e+03  1.8616739802249319e+02  2.7876130973550846e+02  3.2553528046520951e+03  1.9437764818662793e+03  2.9760442518117634e+02  5.0665648286281848e+03  3.6906436709337468e+03  1.2543102931542128e+03  4.1222074769850469e+03  6.1218946941356535e+01  4.5492770330978692e+02  2.9117146972692768e+02  1.1876631742979728e+03  8.6485343312370765e+02  7.3663902600704967e+02  6.8179203071315527e+01  3.7750478525894148e+04  2.8732765870403705e+02  3.1946144215296039e+02  6.9653942929704117e+03  1.5830060291608758e+01  1.1051714189552499e+03  1.7073424377187243e+02  2.5832713867071027e+02  1.3053461314046996e+02  7.3129740118954294e+02  7.2177121648219454e+03  2.0815505327665150e+02  2.9116640258575706e+04  1.5423314659613243e+04  1.6224534890167140e+03  4.8906858063775580e+03  2.5280979524983700e+03  1.5171376863673549e+03  4.3257209602509498e+01  1.2363459831505644e+02  7.6166799820522078e+02  9.2536817551118233e+01  1.1102402045129663e+03  7.2912665322491121e+03  2.8948468441558936e+02  1.6127160436272604e+01  3.4595460274363941e+04  3.1291629086694182e+04  1.1768765071187278e+02  1.4211011810195606e+02  2.3584620078209886e+02  1.0246934829014267e+03  9.3433644355775214e+03  1.5890072563148800e+04  2.2507872841379424e+02  1.2119024504641507e+02  7.2048623513224256e+03  5.1156311172230098e+03  1.7551143722492338e+02  5.3437084321084012e+03  1.7216619138846736e+03  1.2333119828558838e+03  2.9102272205271049e+04  6.3966985724536107e+03  9.6923846212079241e+01  6.4062127258017551e+02  6.9968535946789452e+03  1.0858660154865844e+02  5.5105666261019519e+02  1.8100685592161184e+02  4.6577000469763064e+01  1.2508866129634110e+02  5.5396976423078854e+02  3.6385238608039788e+02  1.9515998342972316e+03  9.4547023580705591e+03  6.2278208768595039e+04  4.1095698712731109e+03  1.0854279511185983e+02  1.2645295097258522e+03  1.7929281063018686e+03  1.4245224656363807e+03  5.1712270036068156e+04  6.4048153747707538e+03  1.0643639284421250e+04  1.1053411326125341e+04  5.9873087729315273e+02  1.5479118321716151e+04  2.5817089613230951e+02  6.2804532493976888e+02  5.9614242348865423e+02  3.6527021960411201e+02  6.8917314718160378e+02  1.6092588090121153e+03  2.7146708857778933e+04  1.4786521442502259e+01  2.3288974667429565e+02  1.3306570373574169e+02  9.0427283871310385e+02  5.7474314914283774e+01  4.8592415284785538e+01  4.2104138178603385e+01  1.4947618672215031e+01  1.9786491307556190e+01  1.6705073858821495e+03  4.0390193460302163e+02  2.2005152723195098e+02  8.2972111875501707e+02  5.5553897751521640e+02  6.8740492133720154e+03  2.9392450741684445e+02  1.3232016417864865e+04  1.0940179962824805e+01  2.9725640803272679e+01  1.1494803303621686e+02  3.8107976389525064e+01  8.0061511490265298e+02  1.7197630494991345e+03  4.9519461539061462e+02  1.3415863454499609e+02  8.8908284812888689e+02  2.0719208902281152e+03  8.3966379194845958e+03  3.3061677172880928e+02  1.2665346500525369e+02  2.8584264227378653e+03  4.0940144565415059e+04  5.2009830462241871e+03  4.2586336770446607e+04  3.8865837966170540e+04  2.1235661991924405e+02  3.8536630735678649e+01  3.1372953488653126e+04  1.2820093381271190e+03  2.8340483687889866e+02  1.9056599101284499e+02  1.6028919177381233e+04  5.8386161939015778e+02  7.0556340422704602e+02  1.2095844518316085e+03  2.5139761676196194e+03  1.8985935905861899e+02  1.7846649651627087e+02  1.0537542804672954e+02  2.5215060818824806e+01  1.8788818765153147e+02  1.1725341765191374e+02  4.0302101474156714e+01  2.3146071432203889e+03  1.1003107088005940e+02  3.0906743990186231e+04  1.5210019067177809e+03  8.2928444348514070e+00  1.6640531315282458e+03  8.5779008981979539e+04  1.1006194854934518e+04  5.2668416909079024e+03  1.5674314827142581e+01  2.7347253332224593e+01  1.8965308448729262e+04  2.4559625322454285e+03  1.2060439765368805e+04  2.3226621843965131e+02  3.2759492440302728e+02  1.0992651099907903e+02  2.1506062083468194e+02  1.0543659076981573e+03  2.1200128886915932e+03  1.3120811676840319e+02  3.0306899627985229e+02  3.9327567116647037e+02  8.2549628321277652e+01  8.5497277330966372e+03  6.8695361489878633e+02  2.0154968411794623e+03  2.5003771010451492e+03  1.0026776823047096e+03  2.1273034179351675e+03  8.1530308246076459e+02  2.2201903350917254e+02  2.4063885208729283e+04  2.6568622756073677e+02  9.5701890090963616e+01  1.1586253508178045e+03  8.4246079295665422e+03  3.8523263105342903e+02  4.1355329601367686e+02  5.8921587096768512e+01  3.6480341099286285e+04  1.1855977604251710e+02  5.6215778705804780e+02  2.0561612906895971e+03  5.2875168215046259e+01  4.5028052790042182e+02  1.1431942686514481e+03  1.7227156724493885e+04  3.2701002781818943e+03  1.7657484018896375e+02  6.6261446372746786e+02  1.4910159564770504e+03  1.1300660471816636e+03  5.8199807664236857e+02  1.3997821025528930e+02  1.6337750359908086e+03  4.1714895160511799e+02  1.2024100037015364e+03  7.1850957987569859e+02  3.0658714448146347e+03  4.1023464713063013e+03  1.5501918145479931e+03  1.8141291457045436e+03  7.0556481587382666e+02  3.9522871841422290e+02  1.3622790158297094e+03  5.1417633643338377e+02  8.2154880397315665e+01  2.2117079560509114e+02  2.0891688583380866e+02  7.9808283067974626e+03  9.8513501392430826e+03  4.4960295381825853e+02  2.3893576027667832e+03  1.2452311009428463e+02  4.1307630858182677e+02  1.0683448789722556e+03  9.9205803835366150e+03  4.7417851771413160e+02  1.4118428487541496e+02  3.0027790617256431e+02  8.7571266997997142e+01  1.5978458701334648e+04  1.0446541823541635e+04  1.9819048941271947e+02  5.5393886712153439e+01  7.8230345973118131e+02  6.0301609005651279e+01  2.9322469878663101e+03  4.3304313470663783e+03  2.2118752553491249e+03  1.7295230135363767e+04  3.2609096831997027e+02  1.5273609613846091e+02  1.9343718298830856e+02  8.5085753220875333e+01  8.0411414433404775e+02  5.0763732217511154e+02  4.8543117058526173e+02  4.9231348948416786e+02  1.5661603360851434e+03  3.9945672345227115e+02  2.5963949538624286e+02  5.2395492532861033e+02  1.1148821577126268e+03  8.2591614729274511e+01  4.9875687069498326e+03  5.0365307501727564e+01  4.6504908987313905e+02  1.1626631582200014e+02  9.3675701809291638e+02  1.0990336939094439e+03  2.5242235983892468e+02  1.9366998702061949e+02  1.2156359849133527e+04  6.3624965960749860e+03  3.9017106087147760e+04  5.9358003610411060e+03  9.5549835826936896e+02  2.6837617263269641e+02  2.0232463144569709e+02  3.1084489875681248e+02  2.2165307084525688e+04  1.3433960035909234e+02  1.7678044472533284e+02  2.1565282711174705e+03  5.0927871875094198e+01  2.4854489459057933e+02  8.5728682048995938e+02  5.1616452690020117e+02  4.2647430177430269e+03  4.7072951298649292e+02  2.5007894624895835e+03  2.9224232645559584e+02  8.0437093693451686e+01  7.9618391448993025e+03  2.0485327969458986e+03  9.2518059991201462e+03  9.3096912421320478e+04  1.5389315326808264e+03  8.0573338209331969e+03  8.6668577003265099e+01  2.1928431822699758e+02  5.0932333013434561e+02  1.5667106125939656e+04  2.9520488856892480e+03  3.4872483242268427e+04  2.9722548976972736e+04  5.3279836733896636e+03  4.9011267924839323e+01  3.4755762591697300e+02  2.2838249584961200e+03  2.4232099214846266e+02  2.4872389850561740e+02  3.7534670135630483e+02  3.7818937175358037e+03  1.0983574920243079e+03  8.0062580462991184e+02  2.3002524448734025e+02  1.4516713630797929e+03  7.1162847219082118e+02  2.6867068796291255e+02  5.0357863633220673e+04  2.8608525904348257e+03  7.2570147032501394e+04  9.4835006670758139e+02  2.2049848310185749e+04  5.2149941561480955e+02  1.8963104040702794e+04  8.6604528162696752e+01  6.7884767597752131e+01  6.5549190135092908e+02  1.1185461652872685e+05  9.4133632292989398e+02  3.1381396530826710e+03  1.2055102713754130e+02  1.7789357038602549e+02  3.0516516635402979e+02  2.2100549558110959e+02  2.6929206065704051e+02  9.1725275469340818e+02  1.9312806273211277e+02  8.3013085749862171e+01  1.6102549428744906e+03  1.1746018014424885e+03  3.3454942468241165e+02  1.0093944933559555e+03  4.7782041197983989e+02  4.0986445521764983e+02  1.1641596457635515e+03  8.8991827745427031e+02  7.8070914169696891e+02  1.0806425784482481e+05  1.6367139804798592e+03  9.3747515050764412e+02  2.9617633348444440e+02  5.9225775964097638e+03  3.0245655753850889e+02  2.4028234850681247e+03  5.4611955290867081e+02  1.7868370153942598e+02  3.9861469654578868e+04  5.2924190925068399e+02  1.0361785598614647e+03  1.7646144339223929e+02  1.1872517135078153e+03  1.6266466192834575e+03  1.9924131518984494e+04  1.7361949921976227e+03  1.1459553275980013e+03  2.5852575276885614e+02  9.3797447620669323e+02  1.0991292615621374e+04  7.5529276898045364e+03  5.9096338072036860e+02  2.1730886510957853e+03  1.2725044497535507e+03  1.8755364237003139e+03  1.0808118344319698e+03  9.0401346722086259e+01  3.9597382826811136e+03  4.0775386733644432e+03  1.1029552652058808e+02  4.8526536709115317e+02  2.3567424437858434e+04  1.9914456374722299e+03  4.7786918136117572e+02  1.7423603582183605e+02  1.5145457325744016e+02  6.5022719632527351e+03  7.0228124602056132e+03  3.2707517529170618e+03  2.3806976728465715e+03  2.2231453355829553e+03  7.2047678944406357e+02  1.7769430750864203e+02  4.2591918016522646e+02  1.4894188907833689e+02  1.1241554726973641e+02  3.1608019306218728e+02  8.4544118003986168e+03  7.1228637746466438e+02  3.8084720169841188e+02  4.0855372391118843e+04  1.5337848064485802e+03  7.6283904684841048e+02  7.6548274513495812e+01  3.2361882126319904e+02  1.6827354249037517e+05  2.2403740089863327e+03  2.2698678961574813e+04  2.2177617866847658e+02  2.2975425720656742e+02  7.9090866185053608e+02  2.8308766834989779e+03  4.9832232814318627e+02  2.3512253698308577e+03  7.6712723969335175e+03  1.3430064855436315e+03  1.0948694025839374e+02  7.0852413678989114e+02  8.4658060283965290e+02  4.4210502276095514e+02  1.0225398289553734e+05  3.3066631829948966e+02  4.4906014180665865e+04  1.3908839755470455e+04  5.1688550999746235e+02  1.4514036612927316e+03  1.5044910838251903e+03  2.5383080476290061e+03  3.4931664555777956e+04  2.7027222969379022e+02  4.7986245051915091e+01  1.8255266358226809e+03  4.3082856524339677e+03  6.4408241715166832e+02  1.1059810245997651e+04  1.1971845680831770e+02  3.7356365995716969e+03  1.9744038274782764e+02  8.0319037801429545e+01  3.2213020828557580e+02  2.8200935811319016e+02  2.4367083654030212e+03  9.6398750227457767e+03  2.6958770025779784e+04  1.2502061273590823e+03  2.5693217855856869e+02  9.4979537938692303e+01  1.9948114706974816e+03  2.2144406185175023e+02  3.2966152395220456e+02  6.5298155142469156e+01  3.2059238258105665e+02  2.5316091619439758e+03  3.1120382409630724e+02  6.6486752189466024e+03  1.1579435270624417e+04  9.2548354986493578e+03  1.4405506969769822e+03  1.9560876901009598e+02  3.6653863998442112e+03  6.5025351860740852e+02  6.2809182997250161e+02  7.5639043186830818e+01  9.5213748725456662e+03  1.9916849034306972e+02  4.2258504163547668e+03  1.8313461076383996e+03  1.7808095150429842e+03  7.6861681564310238e+03  6.1317953647088098e+03  7.4266014357288486e+02  1.2450468908970179e+03  1.7920563659200536e+02  2.5140736006995090e+02  2.1771339215774989e+02  2.2638609006452862e+02  2.0028403700561429e+02  3.1031422800695941e+02  6.1553195779097007e+02  4.7031230729328252e+02  3.6187107997278836e+03  2.9607751483742709e+02  1.9588288166516523e+02  2.0025510971492818e+03  3.0134476498877793e+03  9.9693868670331867e+03  5.0047010111871663e+02  3.6630170208404058e+02  8.7541831356150539e+01  8.9452030031028664e+02  6.7083005381574549e+03  3.4187853552803909e+02  1.1544653425926599e+04  5.6789646563446313e+03  2.3250688145455056e+03  7.2326732106128793e+02  5.9702906572182610e+02  1.0705310417941419e+03  2.0547649153300490e+03  2.3363020717330219e+04  7.6557376844530665e+01  6.2119137479248070e+02  3.2821409676654559e+02  3.8456902380634438e+02  5.4161425167323546e+02  5.7975964374446698e+02  3.8204090676560190e+03  4.6965679743236469e+03  1.7922343067537147e+03  3.1131940083417385e+03  1.1115669441309710e+03  6.0692559124285381e+01  1.5212872279713415e+03  7.7381005955469500e+03  3.5558617649118429e+02  1.0109937056804671e+04  3.0312898104878659e+03  4.6515631488854081e+02  1.7784947715558746e+03  1.4229958052155345e+02  5.8459464116215577e+03  6.2629418930504304e+04  1.9722628378559345e+03  1.7806377803692249e+03  1.2362078764075831e+02  2.1349069011158409e+02  8.7471789975142765e+03  2.9011835698152577e+03  1.2520730980665580e+02  2.8080140000922183e+04  2.7141139326638131e+02  1.0838671113632880e+05  1.3367809522867806e+03  2.1691055904363516e+03  1.4467617953911875e+04  4.0814645362219972e+02  2.3362253327856493e+02  6.4493705372045599e+02  2.0967389773789895e+02  5.0488149428720232e+02  5.0586266586639385e+02  7.1013870226001609e+03  1.3454356250411854e+04  9.7623140853556583e+02  2.1487319954799341e+03  2.6965633586473820e+02  1.6181712245271623e+02  1.2623620414935219e+02  1.8185773882678788e+02  2.6048010128274518e+03  1.0212024885132570e+03  4.3158520054335509e+02  1.4730944865298370e+03  7.4790214969730587e+04  2.3428297594029996e+02  1.2659652038240172e+03  9.5357756481584119e+01  3.8878901139616335e+02  2.0238738208035615e+04  6.6241328234582591e+02  1.0857390387185644e+03  1.9849188985771323e+03  5.8747793357596464e+01  6.6899519521224840e+02  2.3826283333344696e+02  5.1815296509909276e+03  3.1676105333565204e+02  2.2228771388721270e+04  1.9772937459908103e+01  6.7204027670339951e+02  7.6098737526637769e+03  4.1799217637504984e+02  1.7046657332216901e+02  5.0856303935866972e+03  3.5121967940623501e+04  7.7047033225791154e+02  4.1526033887665499e+03  6.9829453061196458e+04  1.3149558614458769e+02  7.5794632792979668e+04  9.4693332461528807e+03  1.9850613011840059e+02  3.4826028791089976e+02  1.3102212250644607e+03  1.8960622563122843e+02  2.4592989138693500e+0