<?xml version="1.0"?>
<VTKFile type="UnstructuredGrid"  version="0.1"  >
<UnstructuredGrid>
<Piece  NumberOfPoints="6498" NumberOfCells="12418">
<Points>
<DataArray  type="Float64"  NumberOfComponents="3"  format="ascii">0 1 0  0 0 0  0.125 0 0  0.125 1 0  0.125 0.5 0  0 0.5 0  0.125 0.25 0  0 0.25 0  0 0.75 0  0.125 0.75 0  0.125 0.125 0  0 0.125 0  0.125 0.625 0  0 0.625 0  0.125 0.875 0  0 0.875 0  0 0.375 0  0.125 0.375 0  0.125 0.3125 0  0 0.3125 0  0.125 0.4375 0  0 0.4375 0  0.125 0.5625 0  0 0.5625 0  0 0.6875 0  0.125 0.6875 0  0.125 0.0625 0  0 0.0625 0  0.0625 0 0  0.125 0.8125 0  0 0.8125 0  0 0.1875 0  0.125 0.1875 0  0 0.9375 0  0.125 0.9375 0  0.0625 1 0  0.0625 0.78125 0  0.0625 0.09375 0  0.0625 0.65625 0  0.0625 0.53125 0  0.0625 0.40625 0  0.0625 0.21875 0  0.0625 0.90625 0  0.0703125 0.71875 0  0.0703125 0.15625 0  0.0546875 0.46875 0  0.0546875 0.59375 0  0.0625 0.3385416666666667 0  0.0546875 0.84375 0  0.05338541666666667 0.2786458333333333 0  0.046875 0.046875 0  0.078125 0.953125 0  0.03125 1 0  0 0.96875 0  0.09375 0 0  0.125 0.03125 0  0.0375 0.953125 0  0.08749999999999999 0.046875 0  0.125 0.28125 0  0.08857717803030302 0.296875 0  0.08456307870370371 0.2527488425925926 0  0.08432904411764705 0.8157169117647058 0  0.125 0.78125 0  0.08432904411764705 0.4407169117647059 0  0.125 0.40625 0  0.04067095588235294 0.1842830882352941 0  0 0.21875 0  0.04067095588235294 0.7467830882352942 0  0 0.78125 0  0.04067095588235294 0.6907169117647058 0  0 0.65625 0  0.04067095588235294 0.1282169117647059 0  0 0.09375 0  0.09230469604198556 0.4788378714055325 0  0.08432904411764705 0.5657169117647058 0  0.125 0.53125 0  0.09230469604198557 0.6038378714055325 0  0.09230469604198557 0.8538378714055325 0  0.125 0.21875 0  0.04036458333333333 0.3723958333333334 0  0 0.40625 0  0.125 0.34375 0  0.09223090277777779 0.359375 0  0 0.34375 0  0 0.71875 0  0 0.15625 0  0.03125 0.640625 0  0.03125 0.234375 0  0.09375 0.921875 0  0.03125 0.796875 0  0.09375 0.765625 0  0.03776041666666667 0.8776041666666666 0  0 0.90625 0  0.03125 0.421875 0  0.03776041666666667 0.5026041666666666 0  0 0.53125 0  0.08723958333333333 0.1223958333333333 0  0.125 0.09375 0  0.03125 0.546875 0  0.09375 0.515625 0  0.08723958333333333 0.6848958333333334 0  0.125 0.65625 0  0.08723958333333334 0.1901041666666667 0  0.09285237672216495 0.6388297534443299 0  0.09120871566215796 0.887895068675684 0  0.03697337403288202 0.3117847356544165 0  0.03125 0.078125 0  0.03125 0 0  0 0.03125 0  0.125 0.96875 0  0.09375 1 0  0 0.28125 0  0 0.46875 0  0 0.84375 0  0 0.59375 0  0.125 0.15625 0  0.125 0.71875 0  0.05859375 0.625 0  0.09203062351730669 0.3280299106084038 0  0.125 0.84375 0  0.125 0.59375 0  0.125 0.46875 0  0.09375 0.4106043198529412 0  0.09375 0.2226289308756895 0  0.125 0.90625 0  0.03125 0.9082327178030303 0  0.09375 0.0917672821969697 0  0.03157790017660633 0.3424870324872683 0  0.02669270833333333 0.2643229166666667 0  0.06829273545144836 0.4982032167254387 0  0.06675762813866792 0.8709439182360006 0  0.05576041429493017 0.2497890636858682 0  0.02734375 0.609375 0  0.02728074596774193 0.5779989919354839 0  0.02734375 0.453125 0  0.02734375 0.828125 0  0.09765625 0.734375 0  0.05493844330495356 0.4393276533475232 0  0.06816449879002234 0.7535164975800447 0  0.05493844330495355 0.5643276533475232 0  0.05493844330495355 0.8143276533475232 0  0.0299965987454304 0.71875 0  0.02999659874543037 0.15625 0  0.0813426135756993 0.3853350519425603 0  0.09765625 0.1637369791666667 0  0.06467653953877486 0.310910294982067 0  0.02169857614656033 0.203125 0  0.02524899995375509 0.1051854999075102 0  0.09975100004624492 0.5426854999075101 0  0.09975100004624492 0.7926854999075101 0  0.02524899995375508 0.6676854999075101 0  0.0216985761465603 0.765625 0  0.04823956951149876 0.928748603739466 0  0.046875 0.9782291666666667 0  0.0671875 0.06614583333333333 0  0.078125 0.02177083333333333 0  0.02127436155913977 0.390625 0  0.1006667715324385 0.7079051314317674 0  0.02433322846756151 0.8545948685682326 0  0.02433322846756151 0.4795948685682326 0  0.06536484344506666 0.3645784953935692 0  0.1057502727878818 0.265625 0  0.09765625 0.97265625 0  0.07158549886191198 0.9769868329539707 0  0.02083333333333333 0.046875 0  0.046875 0.02083333333333333 0  0.1015625 0.9453125 0  0.105773175265869 0.578125 0  0.105773175265869 0.828125 0  0.1057731752658691 0.453125 0  0.02403140427485829 0.9326371297403401 0  0.03105806221105027 0.2882216937203155 0  0.02269345238095238 0.02269345238095238 0  0.02265857126276695 0.9773414287372331 0  0.1023414287372331 0.02265857126276694 0  0.1050021911266925 0.1399031244962927 0  0.1004761981537389 0.6631336343087164 0  0.01789242097701151 0.515625 0  0.1053197095586611 0.3892428214300389 0  0.1071947968863412 0.203125 0  0.06483609068627451 0.1801470588235294 0  0.06307444852941177 0.1182598039215686 0  0.06307444852941178 0.6807598039215687 0  0.07134406133247276 0.9276243773350545 0  0.107023448305187 0.110594895408122 0  0.01797655169481303 0.8894051045918779 0  0.0896290604425302 0.06945979794392823 0  0.01643913299282548 0.359375 0  0.04012690145502644 0.5255663029100529 0  0.07724934918388508 0.2756598204935206 0  0.04333510829975742 0.3946172288681074 0  0.04382482319049504 0.7689316254597454 0  0.04078217840056862 0.2143768568011372 0  0.01872387163348762 0.3244028916671824 0  0.0195742471369305 0.6987325881931771 0  0 0.734375 0  0.0195742471369305 0.1362325881931771 0  0 0.171875 0  0.125 0.078125 0  0.02106088043659297 0.7382013359382263 0  0.02106088043659297 0.1757013359382263 0  0.0497677502679564 0.1647704182208795 0  0.1041623508625682 0.2422658327302558 0  0.125 0.421875 0  0.1039703258643078 0.4303318325659762 0  0.05877296560275284 0.7012639504860959 0  0.0501545493727152 0.727123133991979 0  0.06896549282708588 0.8291595335799418 0  0.06896549282708588 0.5791595335799418 0  0.05561978654147531 0.1989614820041244 0  0.07032296246331207 0.4254414436261769 0  0.05877296560275287 0.1387639504860959 0  0.06896549282708585 0.4541595335799418 0  0.07859817667287269 0.7952004746267884 0  0.07859817667287269 0.5452004746267884 0  0.1054638298647563 0.05657430832458488 0  0.0578125 0.9598420210926695 0  0 0.953125 0  0.0671875 0.04015797890733056 0  0.07649432244045254 0.2338267641856086 0  0.04866265018175087 0.3532402205496085 0  0.04529605546323741 0.670940902672186 0  0.04529605546323739 0.108440902672186 0  0.07114475473057193 0.6075619837836785 0  0.1053722369453574 0.2857608974857906 0  0.1041142204473487 0.3109216152144918 0  0 0.296875 0  0.01867881746150348 0.3038534200233671 0  0.05524134160257502 0.5129465446468287 0  0.06099431830938445 0.3844706742360927 0  0.1038714447569958 0.4968053895139916 0  0.07261836495365119 0.8520669608573707 0  0.125 0.859375 0  0.1042195743166846 0.871267532383033 0  0.1042953726576324 0.6211504246078988 0  0.07222987402884687 0.4785156251683452 0  0.125 0.328125 0  0.125 0.984375 0  0.08224716045754427 0.65550416509288 0  0.07174465449286124 0.6392252775633923 0  0.104342652316052 0.903997804632104 0  0.08499844918863737 0.142434120427652 0  0.0844985192851985 0.6214602780221394 0  0.04739583333333333 0.06666666666666667 0  0.05529012802864505 0.8874707890510186 0  0.07963297040422486 0.2085407376975881 0  0.1058968411519645 0.6894306991298484 0  0.07766817664565827 0.1056561296393557 0  0.1057560771716062 0.1835282231549565 0  0.07773382092984268 0.7013018062982547 0  0.04305452277962929 0.4840923655564813 0  0.04305452277962929 0.8590923655564813 0  0.01875 0.950780111105415 0  0.07024795506527168 0.2930300420408972 0  0.0478397200304771 0.2965328103930845 0  0.05121648255071443 0.3237514478060962 0  0.08754502715293848 0.4598932538963194 0  0.08754502715293848 0.5848932538963193 0  0.08754502715293848 0.8348932538963193 0  0.0809015012254902 0.1712526807598039 0  0.01829563924765609 0.4971063294237891 0  0.125 0.640625 0  0.1084926420285044 0.3359375 0  0.1063049178180489 0.07791358842139073 0  0.07632685032323469 0.08189787709891407 0  0.07651225432210323 0.3501759166473921 0  0.1069221282820671 0.370738774849029 0  0.1067803879682793 0.8097224268749272 0  0.1067803879682793 0.5597224268749272 0  0.0732493355785593 0.8876902320260575 0  0.01502467351849249 0.9167032210578127 0  0.08615695482809546 0.4994098249368031 0  0.125 0.890625 0  0.02098784564269657 0.8719694826931684 0  0.08605728693236238 0.7487942702415453 0  0.125 0.484375 0  0.06046421450728726 0.9420052721508373 0  0.109375 1 0  0.08004180148148797 0.777271102962976 0  0.04883736512240355 0.2304872302448071 0  0.04561230035288119 0.7865371007057623 0  0.04586777931655463 0.4120480586331092 0  0.04802334735844737 0.5413591947168948 0  0.08580129279582045 0.9374318963979102 0  0.01822916666666666 0.06510416666666667 0  0.01726601304092138 0.6517195260818428 0  0.01726601304092139 0.08921952608184278 0  0.04468848999483189 0.6528105200103362 0  0.01827879140158732 0.7837549171968253 0  0.01825288449808249 0.408806731003835 0  0.03971354166666667 0.6236979166666666 0  0 0.421875 0  0.015625 0.4296875 0  0.01816132012761036 0.5339898597447793 0  0.01888020833333334 0.6263020833333334 0  0.04468848999483186 0.09031052001033626 0  0.01827879140158732 0.2212549171968254 0  0.07457391546693767 0.5163353309338754 0  0.125 0.921875 0  0.1077339869590786 0.5267195260818428 0  0.1077339869590786 0.7767195260818428 0  0.1101351348842065 0.759332769768413 0  0.08233437225029967 0.9056437554994007 0  0.0184015012254902 0.2477405024509804 0  0.01883462974062772 0.5611067594812554 0  0.01888020833333333 0.8111979166666666 0  0.1086095656153081 0.3533788510713674 0  0.06562230895048585 0.7359098273357195 0  0.03710573475337388 0.8426414021221816 0  0.03710573475337388 0.4676414021221816 0  0.125 0.671875 0  0.125 0.609375 0  0.1076303706657158 0.4704816551506308 0  0.1095065661265748 0.8515625 0  0.1076303706657158 0.5954816551506308 0  0.03385416666666666 0.03571428571428571 0  0.0863546556944139 0.8706926289304113 0  
[...]
<PointData  Scalars="elv"> 
<DataArray  type="Float64"  Name="elv"  format="ascii">6.5880044743572719e-06  8.2912543301523641e-06  7.6691799414252217e-06  6.6830286345683791e-06  1.0999977338589620e-05  9.3410947046158002e-06  3.7545000345483710e-06  6.7199085037019005e-06  3.1913959663238360e-06  4.3811088503826759e-06  1.0431698990902945e-05  1.0115371131554046e-05  5.6314127574994517e-06  5.5358325098482837e-06  1.1421243624125962e-05  1.0267828364769130e-05  1.0824466608043844e-05  7.6437046773176569e-06  7.8329081669685841e-06  5.4233999470953170e-06  3.0464765330099885e-06  5.0936537756589245e-06  8.8609993548420248e-06  2.8455789544729328e-06  1.1735342076934836e-05  7.7631532000674849e-06  6.8867738639241727e-06  1.0571236033328060e-06  6.6781698576505233e-05  1.1017627652417932e-05  1.1964457607494040e-06  6.9663049582996397e-06  9.9770011197810608e-06  1.2310549723212286e-05  5.6938467505429108e-06  6.4145936674388107e-05  4.9119364067560762e-05  4.7718200908421511e-05  4.4971452395402193e-05  4.8350719481214308e-05  5.2661029685543780e-05  5.7820448354374439e-05  7.1524004624732632e-05  3.1235654056697388e-05  5.8419697806313374e-05  3.5512789410409865e-05  2.6051751042016794e-05  4.6364128637387240e-05  6.8096509118224284e-05  4.7700587902917287e-05  3.0994114011584131e-05  2.2660865244432878e-05  3.2128541499247814e-05  1.2350485128883256e-05  5.0142146287556127e-05  1.0054559278137298e-05  5.0653383995982213e-05  3.5730906787231097e-05  9.3090648171038260e-06  3.7618125184580141e-05  1.8404452190597672e-05  2.4963670204467280e-05  1.2094741247171421e-05  2.3585320765682487e-05  6.7667740749485388e-06  4.3461261006769355e-05  5.7613698375353758e-06  4.0824382967316890e-05  4.2158217444328868e-06  3.9224621275275274e-05  9.6721629790152305e-06  2.9282412272923545e-05  1.1210048689602437e-05  2.8709412592535931e-05  3.6423599967138240e-05  6.1200562083500207e-06  4.3231441680947330e-05  2.4819223929003914e-05  5.9921221474427523e-06  3.6608571426394232e-05  6.4148171920025594e-06  9.2952168678721448e-07  1.7707376697895250e-05  1.1267536043763033e-05  1.1189430861220499e-05  1.0586190147874614e-05  2.1181301239459890e-05  3.1817342067912011e-05  3.6340372385585422e-05  3.2991514530583663e-05  2.9362184786909167e-05  2.7830148498185990e-05  4.0121043588587644e-06  4.0516494216220739e-05  4.1746642653329149e-05  7.3421072043009854e-06  2.8576263755935162e-05  9.9744048323048293e-07  3.0648073962060626e-05  2.1930399071058648e-05  4.9955128485958864e-05  8.6415003498455799e-07  3.0939409308018227e-05  1.8644414832538024e-05  3.2372914729262673e-05  2.6073811226112705e-05  1.7789016237748385e-05  5.8189482125182227e-05  1.5652685293519598e-07  8.7948661486788832e-06  3.0579175552433437e-05  1.1571645979019489e-05  5.8068220170848631e-06  8.7947782958814943e-06  4.6070067011255182e-06  1.0773271963678511e-05  1.0473940076892436e-05  4.2802779550086329e-05  1.8950924750549587e-05  9.2662201813381573e-06  1.2472410249747119e-05  9.0407467991641445e-06  1.8545308724327925e-05  3.3033596777473135e-05  2.4452513112081619e-06  4.4839104055660778e-05  1.4426073715109724e-05  4.3877558109955569e-05  2.6879951726352283e-05  5.8016582543441574e-05  4.7810618761725896e-05  4.9657801549094943e-05  2.1502855129532294e-05  1.2133364966187753e-05  1.4737603405034514e-05  2.3783707538560814e-05  2.5128438035286873e-05  4.5395016476887937e-05  5.8617705696527783e-05  4.2376564536328508e-05  5.4981399504350033e-05  2.4104173211139833e-05  3.1319083199314709e-05  4.5922431432263889e-05  2.1898760323143701e-05  5.7609687202286026e-05  2.0060848104682285e-05  2.3412960076897237e-05  1.4894323546506424e-05  2.3444096065983132e-05  1.6702378841271122e-05  1.9029272431481153e-05  4.4844463986899086e-05  4.0713222425659069e-05  5.5087760104871056e-05  3.5829810945158673e-05  1.9377334288765764e-05  1.7245652300301900e-05  2.5435812493964425e-05  1.7981128302528771e-05  3.5426433673761801e-05  8.9032627534841325e-06  2.0618258984844859e-05  4.4023433738717640e-05  1.2727340549765932e-05  3.0799862119367196e-05  1.1972477553429047e-05  3.0798814077849604e-05  1.0154277313553800e-05  1.7281914771649850e-05  1.8751967301070545e-05  1.8024073193559987e-05  2.1129682516932247e-05  2.0326416292197550e-05  1.6512487533214436e-05  2.6228537981955876e-05  2.0204197080787269e-05  1.8560222219142608e-05  2.9045721421690372e-05  1.5394694622574678e-05  5.6290046782609909e-05  4.4616935864813015e-05  4.4558749549382681e-05  3.7947097653140790e-05  2.5485145698093660e-05  2.0594772166203377e-05  2.5853888193272394e-05  1.3340820207716366e-05  4.9012715144692066e-05  3.5055691111761728e-05  4.8014134958925042e-05  2.7558519357185851e-05  3.3027641872138788e-05  3.2338636512237402e-05  3.8751915382422709e-05  4.7483562329234495e-06  1.2410682247440379e-05  1.1024256255722642e-05  1.1936262461017775e-05  2.2127255209456551e-05  2.1705022290340238e-05  6.7283823722281397e-05  1.3489097358326901e-05  7.3160291784533793e-07  1.0512753667930706e-05  5.3343157063325522e-05  4.9654789278296863e-05  4.2668895174817667e-05  5.1808416789071439e-05  5.4435193886675923e-05  2.8155917398656184e-05  4.8208441146048107e-05  5.4786313284001619e-05  4.6100163742191412e-05  3.1072718785905928e-05  3.3577271345293071e-05  4.2602825147599482e-05  9.0954377502609871e-06  5.2429787508694095e-05  3.3419410801067066e-05  5.2898590293676218e-05  2.6543989203550520e-05  4.1461633641477079e-05  4.0822105493740767e-05  2.1490931855774862e-05  3.8358516242939274e-05  1.8834736350439670e-06  1.5075903562719654e-05  6.9845012883782020e-05  6.0825582956148646e-05  3.8690160436139848e-05  4.3316716019575760e-05  1.4378812157733734e-06  1.7091454241337127e-05  2.5995164220036062e-05  5.4504814720448771e-05  1.0479911295650009e-05  2.2392714579725819e-06  2.8986029191928402e-05  3.5680045574953117e-05  2.7067243186540130e-05  4.5059425259908522e-05  3.8956649864518756e-05  3.3278820195236133e-05  5.1469390230580771e-05  4.7943976909554951e-05  2.6989116073945898e-05  2.5536651080520844e-05  1.4387336392695823e-05  3.3641476931994547e-05  3.0063921912991158e-05  3.6486260200841772e-05  3.3086775890118662e-05  6.2161528288846605e-05  3.2470419673040466e-05  4.7434971949695390e-05  2.9938121449127217e-05  5.9383316105647487e-05  2.9922572690089560e-05  3.3001081741088485e-05  2.3842443489216552e-05  3.8779080820113622e-06  1.0051375243521938e-05  1.0468592655120823e-05  3.2665386152331763e-05  2.6033767695398069e-05  2.9466300350651470e-05  1.4579854111110678e-05  2.2078101493019719e-05  4.3052529706859478e-05  1.3023078212467807e-05  3.9307863771625814e-05  9.7288250522586743e-06  1.6479439218872988e-05  4.6787332979224927e-05  2.0803221854646642e-06  3.4736476224776628e-05  2.3440544947034000e-05  4.1197746570219686e-05  5.5032907084768922e-05  3.8648950858965174e-05  5.1227782611493049e-05  4.5346728365384230e-05  2.2858861872347329e-05  1.5647907997368829e-05  9.6718987581781179e-06  1.0084049661058125e-05  2.7825778359990395e-05  1.4490988238395174e-05  2.2115985335301921e-05  3.2349022381001822e-05  1.0813946625732389e-05  2.7127504880202837e-05  2.5936113475892223e-05  3.1973699015879881e-05  2.9716303967216938e-05  1.5319938253899504e-05  3.6154474710995895e-05  1.0586044762123470e-05  1.2319867374627919e-05  1.8042367836632712e-05  2.6257419103415644e-05  5.7256389776221812e-05  3.1579748860624990e-05  1.6968445085704394e-05  1.4882029955883791e-05  8.6854471477197424e-06  4.6086034662224926e-05  4.8245620041982740e-05  1.9484225419824508e-05  3.2259100291027995e-06  5.9752264487630659e-06  1.3845667050470819e-05  1.0348845579362296e-05  2.3861774530750162e-05  2.0964007346219818e-05  2.7340155745481462e-05  3.6562346258197822e-06  3.7089622563339739e-06  1.8867468410113696e-05  6.4545837282350412e-05  4.2381174170347429e-06  1.9376642767112554e-06  7.4232493475845255e-06  3.4954211688631441e-08  3.8474549163608364e-05  4.3899097904619173e-05  2.8662452399938326e-05  2.3095297085097854e-05  1.5309199144986948e-05  1.0620680852152597e-05  1.0924191854562586e-05  2.9284676952782167e-05  4.0064161524084501e-05  3.9099433211627222e-06  1.0077280529617575e-05  2.5766019586501536e-05  8.5550189482716765e-06  5.1780038556567168e-06  1.3653976908180235e-05  1.0040803559514473e-05  2.5356865394058052e-05  3.1132502568075588e-05  2.3274855655887301e-05  4.3734413357378699e-05  4.2883735137642962e-05  3.3913488223547743e-05  2.1853182605603709e-05  1.0129560368997966e-05  2.7337566048433392e-05  6.7192066048070824e-06  1.4609020080344160e-05  4.2731288337132634e-05  6.9263200911884041e-06  1.9761073084854505e-06  2.6035856463667111e-05  2.0787078176606471e-05  1.0765200332376513e-05  5.2613575836250908e-05  8.9391409702584838e-06  3.9261201347322477e-05  3.7793772434392608e-05  2.8145295833744900e-05  4.4396146787166582e-05  1.2911546588738357e-05  1.2289416111797753e-05  1.2447575882769631e-05  7.5879094848878895e-06  7.7830277234383012e-06  4.8953680873608068e-05  1.0998801375866869e-06  8.2647669856118433e-06  4.8289674208714178e-05  1.6655088221023496e-05  2.1392644290078409e-05  2.2646435794708117e-05  2.9257404767085048e-05  3.4211767454885817e-05  1.9503364361994047e-05  1.0973252490362781e-06  2.6051896128690027e-05  9.7616466492271547e-06  1.9185091188117288e-06  2.5339738220581303e-05  9.6745068760053552e-06  1.1977262617892021e-05  1.3296135752996055e-06  1.9852969710243052e-05  2.9841628542827555e-05  1.3552981020895200e-05  3.0397758890757324e-05  8.9616596332732737e-06  3.9310542579002799e-05  1.6981466344612576e-06  2.5295586622976945e-06  1.1415699686273397e-05  8.1888512649515923e-06  1.0747600745852876e-05  1.1206358214087782e-05  2.6648719475827503e-06  1.0168115044766895e-05  3.1213459086788939e-07  2.2935856602428918e-06  1.5656586248125438e-06  3.6543685982678559e-06  5.6453932301197644e-05  6.1708132883646089e-06  3.2660696639291581e-07  6.9873943843440375e-08  9.9076312143972895e-06  6.6174902501058038e-05  6.0201055200822620e-05  7.8217293972688786e-06  8.9608725589989693e-06  1.4140507194572716e-06  9.8749560256781400e-06  7.5551316138527113e-07  8.7999393036875834e-06  4.2241573497658240e-06  2.9788216316564979e-05  3.7256465248121818e-05  4.9960981241731636e-05  4.4747122072122820e-05  5.0964545475619110e-05  5.2248207461479899e-05  2.5383989725344931e-05  1.9338575771942944e-05  1.8521388080848938e-05  3.5625928237540853e-05  3.3425294400531378e-05  1.6424718274854071e-05  1.3776377604513292e-05  4.0602094253805046e-05  1.8718593052681050e-05  4.3901409298688582e-05  5.7173423476317662e-05  1.3040377061046388e-05  1.9845778488346748e-05  3.2879935650558945e-05  2.9792484369088409e-05  6.1127388168880529e-05  2.0819465369669468e-05  3.4258599319485793e-05  4.8055267320319987e-05  3.6892649067690977e-05  4.1224094815574070e-05  4.2508442446965547e-05  3.3692268565016738e-05  2.1863933057457327e-05  3.0355768931669253e-05  4.3710065882378620e-05  3.2197284406414560e-05  4.0573103805138699e-05  1.4600992574879941e-05  3.9804380549435029e-05  1.6303081502169118e-05  3.1139098096394514e-05  4.1189064412318634e-05  4.7942439598120766e-05  4.5809574777641357e-05  2.2375025489691651e-05  8.2452997914329451e-06  4.5748850672278302e-05  2.4881131318939993e-05  2.9186394618121384e-05  4.3261450318312280e-05  3.3297526852584803e-05  2.9232181824985187e-05  5.7702728814904495e-05  5.3451652634635625e-05  5.3109041253187263e-05  2.2293348600085601e-05  2.4074600287205374e-05  2.7002215698613434e-05  2.5601349647194940e-05  2.6260282907633544e-05  2.8601007743394368e-05  3.2106468844323181e-05  1.5114375122227515e-05  2.6990476641118499e-05  2.1751223693834983e-05  2.5574925301736439e-05  1.7891084487973741e-05  1.5608930427524909e-05  1.8839437617748920e-05  2.3014749897298517e-05  4.0448748245225853e-05  3.8141327168808361e-05  2.6064354898357782e-05  1.2965082506850905e-05  1.4709318731946949e-05  1.7106564495130288e-05  6.9618635590005369e-06  4.7511129187648934e-05  6.0481205624941057e-05  2.5949088975843324e-05  2.8405261001398547e-05  2.1739509564145229e-05  3.5080930959749892e-05  3.2294722706860556e-05  1.9633698959946111e-05  2.6543794385455761e-05  4.3723594347384007e-05  5.5071717812736071e-05  3.5897669428379244e-05  2.8764770148836470e-05  6.2063453627812009e-05  2.9217420105259128e-05  2.9276149998694464e-05  3.2414069722945142e-05  3.3523654843779006e-05  3.3464344580023671e-05  3.5901984329900785e-05  2.6902260764685125e-05  1.6831973682680461e-05  1.0206364689120482e-05  1.2259166601411539e-05  8.6223866034922071e-06  1.1669121348929673e-05  1.5999158500812559e-05  6.0863882097588552e-05  3.8157292953117982e-05  3.0688716413026906e-05  9.6555879926057514e-06  3.6006986924594769e-05  5.3124998144450049e-05  3.7946724083026718e-05  5.1979724122731183e-05  4.1803052223827089e-05  4.5599390325625257e-05  1.1528673982429968e-05  9.8132154844004960e-06  1.3192018587117710e-05  1.9442738342931128e-05  1.7314750890380762e-05  5.9915136403488803e-05  1.2568494110298213e-05  2.7839133492746363e-05  9.9412918113555447e-06  1.1258483504544273e-05  4.1700808556242641e-05  2.3692845168898062e-05  5.7107665830186959e-05  4.6603086196297977e-05  4.1915352840257325e-05  1.5615544921223086e-05  1.2053134968931381e-05  1.1575687989392021e-05  1.0819254624119629e-05  1.3381278138371858e-05  6.9566921335318128e-05  5.5449803483710647e-05  3.6284049805380401e-05  5.3026774374975679e-05  1.7278232265909528e-05  5.4693460207564276e-05  1.2435727789203822e-05  1.1759217507105844e-05  1.2897067660923222e-05  3.9761871471267621e-05  8.6752931516405297e-06  1.6619628010921025e-05  4.6792220603518168e-05  1.2763268851840870e-05  8.3317876401700390e-06  6.4370678989873770e-06  3.4602904754010899e-05  1.5627395292548204e-05  1.9399873656314775e-05  6.6294734977972178e-06  1.9374635735579202e-05  2.6543362554548317e-05  3.2821742939373599e-05  7.7973002434337664e-06  1.8543892632267325e-05  3.4830334271565672e-05  2.9447517263512894e-05  5.8730921572623533e-05  4.6161675967106814e-05  4.7119316852756408e-05  3.6033510933595568e-05  8.8831281281203415e-06  1.9043896632833455e-05  5.1881820655561160e-05  3.6257956590759426e-05  4.0526454184306461e-05  4.4130479849549831e-05  4.9525872276234761e-05  3.8894893281170920e-05  5.6246162771566668e-05  3.2338336584210672e-05  3.6376758205658657e-05  3.6774253761527834e-05  7.5281929040892729e-06  1.2348030537256659e-05  3.3081909753343850e-05  2.5497720716483228e-05  2.2601633988687936e-05  2.9830185870292611e-05  7.3571912843978842e-06  3.7650952923017154e-05  2.6872695084261561e-05  1.0128674759788620e-05  1.3922034134319630e-05  3.4908297422911087e-05  5.1130509954896798e-05  2.7689981046639591e-05  1.3026690763334504e-05  1.1154275075690926e-05  1.5024531156029620e-05  3.9677649652904144e-05  2.1099882019103332e-05  3.8170098841466860e-05  9.8052789859192360e-06  3.0324156735744371e-05  4.3555879892505962e-05  2.1449347352285519e-05  2.1819277294693462e-05  2.7255271978664900e-05  2.9811205506629841e-05  5.6331281225277061e-05  1.3625550668346916e-05  1.1053495993673651e-05  5.5574715488584165e-05  4.8840127364618255e-05  1.3166342620157547e-05  2.0619668498593040e-05  4.8663520072427443e-05  2.7050101114746466e-05  1.6058224904305379e-05  9.2961540218669416e-06  2.0872635416432229e-05  1.1926702525580819e-05  1.4323252969561856e-05  2.4506621288705472e-05  3.1261305750472681e-05  1.5893489866754008e-05  2.9726821868934951e-05  5.2608236393709480e-05  4.8685279640680606e-05  1.5478339411168773e-05  1.6667753833340092e-05  4.4161869863009178e-05  1.6783376268372171e-05  1.7746884487507357e-05  3.6607741425381034e-05  5.2286315089839861e-05  6.1365748359103168e-05  4.3910328860337499e-05  7.3057936723085202e-06  1.3854579536910071e-05  2.2520122528492372e-05  2.1242799699396626e-05  4.9444484925137185e-05  1.3179556547032468e-05  2.7814185641948674e-05  3.8597677036295730e-05  1.8420632477182674e-05  1.5286545390957357e-05  3.4558664477198752e-05  4.3183594706152667e-05  4.4802017360082795e-05  9.8463756004779086e-06  2.8151516598918827e-05  6.1934495674558831e-06  3.8572591879662018e-05  6.5431740458544090e-06  1.9320824802201633e-05  2.6182899535322153e-05  3.5488099703252561e-05  1.8674561046676542e-05  2.6774488179016432e-05  9.6969688297288735e-06  1.6539547790802294e-05  6.7854565383504802e-05  8.9909840521068449e-06  3.4280504102733376e-05  1.2177806403898432e-05  1.4772834783588162e-05  3.1881824623812555e-05  1.0844660780682136e-05  1.6911093886796183e-05  2.5003252252193696e-05  1.6111277386548012e-05  2.6113829688323903e-05  3.5325188004634408e-05  1.2899216827217905e-05  1.6011859809248017e-05  2.9250924835651424e-05  1.9544062621714307e-05  4.1707313237850933e-05  2.6952196285937627e-05  1.6528506425357905e-05  5.2210039000933955e-05  5.3568573925026847e-05  3.5524127418401006e-05  2.6409159898701702e-05  4.7016350368757775e-05  2.6228285658039917e-05  2.2523449416749808e-05  1.9684633503248706e-05  2.0931144944120328e-05  1.1982893432361428e-05  1.3050001682344626e-05  3.3899154330092368e-05  3.8832973004074430e-05  4.4564445706142033e-05  2.1203857947095237e-05  5.0254862546922908e-05  3.1204104407739183e-05  2.5412237080281459e-05  2.6638245131142399e-05  2.3619551916764097e-05  1.3310345783926286e-05  4.1839743740576880e-05  3.5529043991892430e-05  5.2679786632987876e-05  4.4666461960766396e-05  2.3121117559596482e-05  3.8504358949658655e-05  6.4128906708601111e-05  4.7096725184541666e-05  4.7141505694495015e-05  1.3248358072951622e-05  2.5418026062939458e-05  2.0164999336048255e-05  2.6574920306387172e-05  3.4889515577822139e-05  2.6468236296369842e-05  2.1605192760795617e-05  5.7423646233788923e-05  4.5220598995484362e-05  5.6273136082660434e-05  4.0739026122981461e-05  3.2991077821676976e-05  5.8577918395441339e-05  1.8241752421213707e-05  1.7215161641857872e-05  2.2201592613263386e-05  3.4241894832688741e-05  3.0464941755322555e-05  4.1661118963150067e-05  2.9797146756676415e-05  1.6098113314241427e-05  5.3312040362301961e-06  2.6337008557371726e-05  2.5554241385025266e-05  2.9710388989043089e-05  1.8785847235183859e-05  1.2056526962974333e-05  1.1028027886221193e-05  2.0892354081851204e-05  3.3947783092603660e-05  3.3029905052707378e-05  4.1155731684194639e-05  6.4660185503285199e-05  3.8040611233126005e-05  1.8832723927287374e-05  1.5246587023252794e-05  2.5483569774583695e-05  2.4277747255952901e-06  3.4736113417110109e-05  4.0922957846676485e-05  9.6117289248165145e-07  1.3735618096067826e-05  1.7228611957489340e-05  1.9293716910721116e-05  1.5374679081971559e-05  5.6186081252299946e-05  1.2885686649893291e-05  2.1088833750829802e-05  2.2180958926715188e-05  3.8829385797739211e-05  1.3910805891025376e-05  1.6797127629321742e-05  8.1312868198116152e-06  1.7373735817531313e-05  3.0177536059887583e-05  9.7930290235732372e-06  3.1460826320104599e-05  3.8190177959371765e-05  1.6307804444983352e-06  3.0253192907770087e-05  2.5401533429482443e-05  2.3658162171694997e-05  3.1584503828512481e-05  1.7593531727806550e-05  3.6047211828235077e-05  3.3832865729058690e-05  4.5742838996137874e-05  5.7329325586285017e-05  5.3634257103964151e-05  2.1918391462546121e-05  3.1382156367881824e-05  4.4501768215007774e-05  4.0237042241698198e-05  1.7395427183890504e-05  8.4502300424087081e-06  3.3242564986123022e-05  3.5424623072758601e-05  6.6609276620921426e-05  3.4827840017264532e-05  2.3962128499354541e-05  3.6287357996126734e-05  3.3018619374985295e-05  1.9022660938151233e-05  8.7018959895037672e-06  2.4253309081939411e-05  3.6921432262877701e-05  1.2845302143416685e-05  5.0914352421313860e-05  2.6136403762362705e-05  9.5285715719966495e-06  1.5112937312620007e-05  2.8412191788461823e-05  2.5071484806274398e-05  1.8883171977940259e-05  2.7231072676928498e-05  6.9979876524093069e-06  1.7363028135134409e-05  1.1646845146101455e-05  6.7251057493373391e-06  1.0282641246299177e-05  1.1556447804477138e-05  3.0002075963583492e-05  5.8151889610110315e-05  1.7570929617964048e-05  1.9818123494992734e-05  5.8992023758400954e-05  5.6483572970842072e-0