<?xml version="1.0"?>
<VTKFile type="UnstructuredGrid"  version="0.1"  >
<UnstructuredGrid>
<Piece  NumberOfPoints="3167" NumberOfCells="6012">
<Points>
<DataArray  type="Float64"  NumberOfComponents="3"  format="ascii">0 1 0  0 0 0  0.25 0 0  0.25 1 0  0.25 0.5 0  0 0.5 0  0.25 0.25 0  0 0.25 0  0 0.75 0  0.25 0.75 0  0.25 0.125 0  0 0.125 0  0.125 0 0  0.25 0.625 0  0 0.625 0  0.25 0.875 0  0.125 1 0  0 0.875 0  0 0.375 0  0.25 0.375 0  0.125 0.3125 0  0.125 0.5625 0  0.125 0.8125 0  0.125 0.125 0  0.109375 0.4375 0  0.109375 0.6875 0  0.09375 0.21875 0  0.15625 0.90625 0  0.25 0.0625 0  0.1875 0 0  0.0625 0 0  0 0.0625 0  0.0703125 0.9296875 0  0.25 0.1875 0  0.175 0.21875 0  0.1686580882352941 0.6314338235294118 0  0.25 0.5625 0  0.1686580882352941 0.3814338235294118 0  0.25 0.3125 0  0.1846093920839711 0.457675742811065 0  0.1846093920839711 0.7076757428110649 0  0.06963315217391304 0.8580163043478261 0  0.07291666666666667 0.07291666666666667 0  0.15625 0.0625 0  0.1875 0.84375 0  0.0625 0.28125 0  0.1875 0.53125 0  0.07552083333333334 0.7552083333333334 0  0.07552083333333334 0.5052083333333334 0  0 0.5625 0  0.07552083333333333 0.3697916666666667 0  0.07552083333333333 0.6197916666666666 0  0.1824174313243159 0.7757901373513681 0  0.0625 0.15625 0  0.25 0.9375 0  0.1875 1 0  0 0.8125 0  0 0.4375 0  0 0.6875 0  0 0.3125 0  0.25 0.6875 0  0.1875 0.285625 0  0.1875 0.151875 0  0 0.9375 0  0.0625 1 0  0.25 0.4375 0  0.25 0.8125 0  0 0.1875 0  0.1349233842818192 0.4925919004742429 0  0.1335152562773358 0.7418878364720013 0  0.0594917385057471 0.5625 0  0.203125 0.09375 0  0.0546875 0.4225260416666667 0  0.0546875 0.6725260416666666 0  0.2019136658660413 0.338216765427811 0  0.1995020000924898 0.5853709998150204 0  0.134375 0.2572916666666667 0  0.134375 0.1802083333333333 0  0.0542280474742976 0.8055614981858166 0  0.1221934647393398 0.8655188450868867 0  0.04166666666666666 0.21875 0  0.15625 0.9583333333333334 0  0.203125 0.890625 0  0.206713569888 0.4132614932290299 0  0.2115463505317381 0.65625 0  0.2012310606060606 0.9393939393939394 0  0.201171875 0.0458984375 0  0.03999561774661511 0.7201937510074146 0  0.0399956177466151 0.4701937510074146 0  0.035784841954023 0.34375 0  0.120327818627451 0.6397058823529411 0  0.120327818627451 0.3897058823529412 0  0.109375 0.9557291666666666 0  0.04564950980392158 0.1118259803921569 0  0.1118259803921569 0.04564950980392157 0  0.08025380291005291 0.3238673941798942 0  0.1112651209677419 0.9105762768817204 0  0.03211805555555555 0.90625 0  0.03828125 0.96171875 0  0.04036458333333334 0.04036458333333334 0  0.03620912949997044 0.5250978305837619 0  0 0.59375 0  0.162109375 0.1044921875 0  0.03118139907916267 0.8408194304321051 0  0.1571963533457454 0.590400949253577 0  0.1587578894014007 0.3394119764183286 0  0.1506969975490196 0.4218175551470588 0  0.1506969975490195 0.6718175551470588 0  0.2070906355574324 0.2473574746621622 0  0.2070906355574324 0.1901425253378378 0  0.08465650753054846 0.1224380150610969 0  0.1114330859658678 0.08648358070079884 0  0.04054746717714226 0.5986883868529541 0  0.25 0.15625 0  0.25 0.28125 0  0.25 0.71875 0  0.2084391486333693 0.742535064766066 0  0.2077428895139916 0.4936107790279832 0  0.25 0.96875 0  0.03666712336686759 0.7684569195137533 0  0.1109703176434807 0.3503952932678546 0  0.1109703176434807 0.6003952932678546 0  0.1323450854700855 0.21875 0  0.25 0.78125 0  0.2086853046321041 0.8079956092642081 0  0.08000310162272527 0.465131759144696 0  0.08000310162272528 0.715131759144696 0  0.1018832642575987 0.1578918738938707 0  0.09479166666666666 0.2583333333333333 0  0.03867928291393143 0.3857193939186725 0  0.09132584216562684 0.7915703900993829 0  0.09224586925287355 0.5407758212513062 0  0.2116835102241899 0.3752677467682454 0  0.0414061843625662 0.6367966883181331 0  0.25 0.21875 0  0.08681832107843138 0.4047372855392157 0  0.08681832107843135 0.6547372855392156 0  0.1712610500122523 0.4982534075100398 0  0.1479279021104813 0.5302308042209626 0  0.1402758174771396 0.4566398871709348 0  0.1401770623234474 0.7063796751786664 0  0.2135607759365587 0.6194448537498545 0  0.07848715477520853 0.8937711976365836 0  0.09934508737030834 0.8377256696305275 0  0.07675624887614536 0.0340696230396066 0  0.03406962303960659 0.07675624887614535 0  0.1440082713785475 0.7789727266050902 0  0.1660139782670602 0.8111869039237365 0  0.07431640624999999 0.96572265625 0  0.25 0.46875 0  0.1698567708333333 0.03024088541666667 0  0.171875 0.875 0  0.03645833333333333 0.2552083333333333 0  0.08098262222381999 0.18607118888809 0  0.02997236128493951 0.143180277430121 0  0.25 0.84375 0  0.2154679739181572 0.5534390521636856 0  0.03645833333333334 0.1822916666666667 0  0.03632264025522072 0.3070202805104414 0  0.21875 1 0  0.1513741686550626 0.8442167313996213 0  0.2168133977813582 0.4459955487717956 0  0.2190131322531496 0.703125 0  0.1727093113888277 0.7413852578608228 0  0.1701041666666667 0.2542708333333333 0  0.1517708333333333 0.1488541666666667 0  0.2142163753799392 0.1278941869300912 0  0.1587267574490621 0.3048224010443303 0  0.2156942356037362 0.3061689288285205 0  0.1725364379972955 0.1836837968219244 0  0 0.28125 0  0.25 0.59375 0  0.09623775023237939 0.2930336745498909 0  0.21875 0 0  0.25 0.03125 0  0.1670095396165001 0.5580904353245775 0  0.21875 0.859375 0  0.25 0.90625 0  0.06770833333333333 0.2392406798245614 0  0.1360540015737478 0.9322916666666666 0  0 0.65625 0  0.2159715577099652 0.7752374751740043 0  0.03967280310556515 0.8734198626945593 0  0.1077910012998816 0.762797795345007 0  0 0.40625 0  0.1171150579179289 0.5198108382041321 0  0.09070664895503529 0.5740093301963526 0  0.25 0.53125 0  0.1411005024478043 0.365749143953847 0  0.203125 0.9716815370501894 0  0.1837945203686314 0.6744812093095998 0  0.2183170921236503 0.1602468982335675 0  0 0.15625 0  0 0.09375 0  0.09375 0 0  0 0.53125 0  0.03125 0 0  0 0.03125 0  0 0.96875 0  0.03125 1 0  0 0.84375 0  0 0.90625 0  0 0.34375 0  0 0.46875 0  0 0.71875 0  0.25 0.65625 0  0.25 0.40625 0  0.15625 1 0  0 0.21875 0  0.25 0.34375 0  0.25 0.09375 0  0 0.78125 0  0.09375 1 0  0.15625 0 0  0.1382501640128451 0.6146706181423367 0  0.1029032040920708 0.4879819075298724 0  0.1112825458828796 0.718954367531518 0  0.2169638964623854 0.5228330254530568 0  0.1405591976966633 0.03688248058223706 0  0.02974586925287355 0.5550688899717633 0  0.2160338230385579 0.2760842074590348 0  0.02581632758445363 0.7963003271249862 0  0.224971958664313 0.921875 0  0.06400137079623429 0.5337450614030229 0  0.2037965081545127 0.21875 0  0.1853048017546082 0.1225569867710261 0  0.02797756823289423 0.4122583915708087 0  0.03201311651072376 0.4416354471567994 0  0.02802337245342894 0.662104489389812 0  0.03186754112015969 0.6915905787012612 0  0.2261855508973228 0.953125 0  0.08036684492372444 0.6860917176336441 0  0.08036684492372444 0.4360917176336441 0  0.1802741037799466 0.4278105955407592 0  0.1778428819444444 0.08089192708333333 0  0.2205285078642384 0.06907401179635761 0  0.1088722606056869 0.1940083737915799 0  0.1367254622493273 0.2860909589983134 0  0.06842073158759261 0.5920268866576984 0  0.184988977893691 0.9143419336810731 0  0.0418402777777778 0.9332465277777777 0  0.1871006213226104 0.6104250062100378 0  0.07985644640444792 0.8173374306235633 0  0.04732923247576441 0.4982821258888622 0  0.06611853992436414 0.780911006716439 0  0.2273935668277038 0.828125 0  0.1858696187385389 0.3143428712429033 0  0.1140892094017094 0.2390357905982906 0  0.1877922691669536 0.3617539661943096 0  0.05758674846768909 0.8333647569007363 0  0.1352608290824233 0.09973815947057559 0  0.1517706243282904 0.2004488161476693 0  0.1449695316901515 0.8810785158450758 0  0.09462378205504757 0.8708015690781575 0  0.227445339911385 0.578125 0  0.05745737992792876 0.4499181399758709 0  0.05780649493506441 0.7003314350163611 0  0.1187818739346447 0.7868226346316679 0  0.1745466635354981 0.9389032027907473 0  0.1256305258840564 0.838799819642297 0  0.06770833333333333 0.2124471236358035 0  0.02083333333333334 0.203125 0  0.140625 0.9791666666666667 0  0.1766821659552516 0.975561292200228 0  0.1620783318872163 0.4727483267075381 0  0.1536725427350427 0.2339082512469609 0  0.1617771474337578 0.278952823831228 0  0.02741604996872549 0.281090803289549 0  0.06183906994143391 0.3975310989925237 0  0.2268982540772563 0.2305832481508689 0  0.2294261974844445 0.203125 0  0.02083333333333332 0.234375 0  0.2223182091346154 0.02768179086538462 0  0.09616947414406221 0.7398115542262675 0  0.1053409896466572 0.4626386355124552 0  0.08648552069711524 0.09585218346816277 0  0.2272083926866681 0.3301067571674309 0  0.1294244353979274 0.06623776300617727 0  0.1263039818717184 0.1504857241294106 0  0.1149927180695202 0.2733691199751007 0  0.06199131875595188 0.7334062158692485 0  0.02625450755792898 0.7434924481572176 0  0.01945983991027112 0.484375 0  0.2275111354177403 0.3554598004473978 0  0.1921314999800934 0.3920320902063825 0  0.2289470153175877 0.4243266814421967 0  0.1870247299647788 0.6491605463078544 0  0.230773175265869 0.640625 0  0.2257840012722039 0.6780142623324342 0  0.2307273932539546 0.109375 0  0.2269693349086677 0.8972169952739968 0  0.1953125 0.8671875 0  0.162762385654881 0.6943720653954724 0  0.161588388430844 0.4440475151025772 0  0.2309500035219089 0.390625 0  0.2299311249500424 0.7955318348720017 0  0.02413306936009103 0.09948394181876646 0  0.09948394181876646 0.02413306936009104 0  0.1330536118107118 0.3370263238470877 0  0.1248085171568627 0.6658847783905228 0  0.1248085171568627 0.4158847783905228 0  0.1449811166772675 0.6384219919056187 0  0.1453180229233392 0.3903903978433153 0  0.09683485463150776 0.3822000850447938 0  0.09683485463150776 0.6322000850447937 0  0.223427517855915 0.4719270744719414 0  0.06546557658678889 0.6423413858921275 0  0.02224001017440792 0.5800747442977685 0  0.05437297849869319 0.3256533714011888 0  0.06877150140910145 0.3458900515631618 0  0.05106406938652892 0.3637940165204562 0  0.19179503104
[...]
<PointData  Scalars="elv"> 
<DataArray  type="Float64"  Name="elv"  format="ascii">3.2812915769775673e-06  1.0505457657738775e-05  8.7069937111672742e-06  5.9300704184522853e-06  2.6336938765386830e-06  2.3614724636818754e-06  6.7117591864302995e-07  1.1288194317153151e-05  8.9188669889170482e-06  4.3592186875286988e-07  1.2487534371373634e-05  1.4614476696065568e-06  8.9121763789079932e-05  7.9765424054019766e-06  2.6790559652506321e-06  4.3445667384661715e-07  7.4288669927755513e-05  9.1407074922047313e-06  5.6578154043718464e-06  9.4259149956075921e-06  6.8045272419855503e-05  7.7391635379021984e-05  9.1903347012658562e-05  5.3806748305463898e-05  7.0504913795542870e-05  4.6058015156365690e-05  6.8848178520257173e-05  6.4455641962372630e-05  1.0231090884774948e-05  4.6741903005894552e-05  3.3705226393775732e-05  1.0641348877592372e-05  3.4658803487455951e-05  3.8754077502039379e-07  5.8631335799305627e-05  3.3068539844128034e-05  5.4568386105170176e-07  5.1668334737773870e-05  1.0825731867208132e-05  4.3358096746880879e-05  4.9365500091338273e-05  3.6964308105027758e-05  3.4502017935135489e-05  6.2671932875475581e-05  2.8883199758075974e-05  2.8741188766848959e-05  3.4795771661544262e-05  4.2501481743608253e-05  3.7347186220481980e-05  7.8099185745412983e-06  3.1077217097833533e-05  6.4782459788481110e-05  5.4845057305798976e-05  3.0969297899346495e-05  2.3754176683345385e-06  3.3596553755282732e-05  3.6334324614750543e-06  8.6605543940408389e-06  1.0082344992372220e-06  9.9559748548067444e-06  4.2605559088170768e-06  4.0717184773499767e-05  3.3696053061787932e-05  1.1235257565112213e-05  8.1291445019152054e-05  2.2924584178088404e-08  2.2319509801583579e-06  1.1824038633401402e-05  8.9592622116079347e-05  6.9094485029786110e-05  2.7988967542576349e-05  2.3081120721389043e-05  6.7188892392012914e-05  3.3278807221035629e-05  3.1162875644573341e-05  1.6284369678984956e-05  7.3380981175642503e-05  7.5182960398553544e-05  4.3287772479402351e-05  7.0127447256757822e-05  5.5137678971431295e-05  3.8363630674259078e-05  2.6707186917057604e-05  1.9952654440246313e-05  3.5521678224425292e-05  2.6434438390245876e-05  3.3663703252077435e-05  1.6579843303449693e-05  2.3069726599155818e-05  1.5462677024725733e-05  7.9051644020904706e-05  6.9022961641200390e-05  6.6447615007721598e-05  1.5509618223695198e-05  7.4005361426462049e-05  3.5228061835686557e-05  5.6011621454147755e-05  1.5171399798697982e-05  3.5845937564420082e-05  2.5003983667392143e-05  1.5340463851762669e-05  4.8649096477723252e-06  4.3182119613816892e-05  4.1304453673475187e-05  4.5016404350249780e-05  6.2698319843303591e-05  5.8270559223711734e-05  7.7844289651316653e-05  2.3084256141358779e-05  4.3891505453979727e-05  2.6936602884566676e-05  4.4312576871187014e-05  3.5893777199606894e-05  2.3106456810913917e-07  7.5672676436783523e-06  9.5429393284172993e-06  2.6928438515402308e-05  4.2564135527059858e-05  8.3261271250135185e-06  3.0083015580304275e-05  5.0135054114122905e-05  6.8572111753316365e-05  8.8040643218058247e-05  1.0565985313507498e-05  2.9955226426671975e-05  4.1694803345006109e-05  2.9440719545329548e-05  4.5116709924278922e-05  5.2609990221083262e-05  3.2671400967678818e-05  7.9480274028301628e-05  5.5056150363063285e-05  3.1137486256122861e-05  4.5394171144757233e-05  9.2685792695436975e-06  6.2949398432214098e-05  5.3508094290833574e-05  7.3003820874905165e-05  5.1820983514808652e-05  9.0538137474207005e-05  7.6399003802706900e-05  1.2090734869234925e-05  2.7695579326855407e-05  5.6701208821133364e-05  4.0397050622558655e-05  1.3807860252402512e-05  8.6043819084165825e-05  5.8410971127596014e-05  6.4113448677633635e-05  1.0957055856277017e-05  6.6853759328932297e-05  4.2851982751512445e-05  2.4258496355896340e-05  4.5961480167359035e-05  2.6606552783634553e-05  1.0030933368616408e-06  1.9948146194637555e-05  4.7345716360760677e-05  1.6601852425259084e-05  1.3849103688688643e-05  5.1494759315890700e-05  2.1887724416797052e-05  2.4750633348181597e-05  4.9073121770608702e-05  3.9062867411718570e-05  4.9494750964729899e-05  1.6933848264708511e-05  6.2118362850368449e-05  2.0841618245458706e-05  7.0056916804097491e-05  5.8501405490965945e-06  2.5513890500381594e-06  4.2578699561827918e-05  2.8997847088807089e-05  7.8758747213934319e-06  4.1980171093233021e-05  1.2922664766695407e-05  1.1411264989341405e-06  6.0558346533804810e-05  5.6438738665455839e-05  1.0081176018845738e-05  3.5791446649305049e-05  2.0468894603724241e-05  6.2341542576042612e-05  1.3597624445304629e-06  7.8396331436455781e-05  4.6253072323899798e-05  2.9554578556683408e-06  7.4188636835297185e-05  2.0020068246902648e-05  4.7084090587005072e-05  3.2987177535733179e-05  4.8309360592896245e-06  6.1256149444929430e-06  5.4962237531029263e-05  2.7838082873807706e-07  1.7274935273951558e-05  1.1451034638850716e-05  1.2403417703405740e-05  4.7383153328806347e-05  6.5136252463343968e-06  5.5776671284691200e-06  3.1373465409963444e-06  1.4937255877437480e-06  2.5104009920644100e-06  4.2346877998726207e-06  5.3359851645887191e-08  4.9044788839054394e-05  7.9285693870049617e-06  1.2034187716646315e-05  7.5491603553846893e-06  2.1106190417641780e-06  1.0950730981047959e-04  7.0610084883308583e-05  4.9166614103818751e-05  5.4512941094739304e-05  4.8457584638903330e-05  3.6246277951050351e-05  1.0650087458351497e-04  1.6467008412082876e-05  1.7509304725354865e-05  2.3267438045709914e-05  3.9236756009627583e-05  3.1956287268884906e-05  3.4682349971622867e-05  2.7462949366265989e-05  3.6172623990577157e-05  3.4773147006454699e-05  3.4976203773676493e-05  1.6702012080513903e-05  1.5039659869897318e-05  3.4934562552506844e-05  6.1293660189996947e-05  3.5800895668430126e-05  3.9782441104428672e-05  2.3499415017702140e-05  6.1222469767334656e-05  6.7499310873558177e-05  3.9738480738739451e-05  4.6833585845969024e-05  2.6949883767579252e-05  2.1498424193487458e-05  7.1346730124932645e-05  2.3135421675628827e-05  5.1103979751857838e-05  1.3891816585691509e-05  4.0089920839345451e-05  8.0891883971198982e-05  4.6431290976531928e-05  6.0950073846907895e-05  5.9681235236775913e-05  9.6088567235243414e-05  8.1076453996372662e-05  3.9412873702895041e-05  1.2440007950043604e-05  3.8764327915881172e-05  2.3051956067871329e-05  9.3369236503442718e-05  3.3143563066623239e-05  6.8085025312775567e-05  6.4810865832209068e-05  3.1575082471185129e-05  4.7514291019526937e-05  2.8116171828663280e-05  7.3431168311592998e-05  5.8679045795452152e-05  5.0247084233750436e-05  1.5035497622039042e-05  4.1867220397451819e-05  1.7877117493865103e-05  1.8599569866193489e-05  2.7549809111752841e-05  1.9030916916912825e-05  4.2042033221016997e-05  5.5349055807819657e-05  2.9446203360356308e-05  1.6057899566706853e-05  7.0288893850629786e-05  6.9176344148222428e-05  5.5882962458328799e-05  2.8682652465452297e-05  1.6262998400757970e-05  1.1102620586219521e-05  3.5172914138569760e-05  2.9487542446614869e-05  1.0909994460927038e-05  3.5760699093052724e-05  1.9871503745754427e-05  1.9103534808400839e-05  9.9855095009863348e-06  2.5925514435437361e-05  2.3285483453630812e-05  6.8618161938056700e-05  5.4945407519111436e-05  1.6880817656249454e-05  3.3618391635838650e-05  1.0239806268676331e-05  6.2180658732912663e-05  7.9856777663671105e-05  6.2533293181203957e-05  9.0381360994131005e-05  4.9248546081384518e-05  7.1421797103450187e-05  4.8452926393351770e-05  8.0894062029984680e-05  2.4646422304362569e-05  6.5351818397280030e-05  2.3719304477757095e-05  2.1206964251481829e-05  2.6671778038586431e-05  2.2974580063669868e-05  2.5765443876778684e-05  2.6246152862925920e-05  3.7465661581105743e-05  6.1410504344993675e-05  2.0773313598080100e-05  5.2833238195104524e-05  4.5176548435690826e-05  1.8185097973395265e-05  4.4418763037886592e-05  5.4541737393894045e-05  2.1770269324763361e-05  1.7038521112509012e-05  8.7204827779698530e-06  1.6374625184164471e-05  1.0706129423491086e-05  6.3546613790564765e-05  6.5301150244151176e-05  7.4743038114444475e-05  5.0772998219908467e-05  6.1157120390704605e-05  3.2401441246017924e-05  6.2860700918364993e-05  2.2974449771395431e-05  4.9736756666348101e-05  3.3892004666183076e-05  2.3864982100732689e-05  1.6007961437199762e-05  2.0551410689717284e-05  3.8824601450163626e-05  4.2266424686154995e-05  1.7318336208158020e-05  5.2480291587741005e-05  7.9342913845623726e-05  3.2839962807818690e-05  5.7024236658788942e-05  2.2795437785959629e-05  2.2820153318660829e-05  7.7375424080922814e-05  2.9530669540207385e-05  2.1186682648063460e-05  1.2435948081555236e-05  9.4078643495461943e-06  3.8815065771806032e-05  3.9647450471266458e-05  7.3774595044538569e-06  1.1272082606343750e-05  3.0386253889155166e-05  3.7049828569059532e-05  4.9090596351848633e-05  2.7595950787746785e-05  1.1337278308881117e-05  5.5374732354975392e-05  9.1277573538699298e-06  2.0090702757115558e-05  1.6853946342239113e-05  7.9159456176106755e-05  2.5701450952270327e-05  5.7286739939205062e-05  8.0313625595422364e-05  5.3675640086416389e-05  6.5404954892146893e-05  3.3869780727826895e-05  4.5470282415358525e-05  6.1104138643887606e-05  3.9029874399855929e-05  8.9533547136136810e-05  3.2445466787240214e-05  1.3666702354771898e-05  6.1655101021895051e-05  4.3864071157196636e-05  3.0011973072870186e-05  2.2485135570237496e-05  3.5373590701251613e-05  5.5750200174766946e-05  3.5065664510651092e-05  6.0464528905877417e-05  5.5502597365888687e-05  4.6448605050230404e-05  3.9299592823398184e-05  3.8160763308392087e-05  6.1684318223440370e-05  3.1393760890575145e-05  3.7252226936661203e-05  1.5938763318071781e-05  8.0288948512492644e-06  2.2208580401685773e-05  3.1595183026409775e-05  3.0922805535410930e-05  3.7662533419194611e-05  3.7655067413216805e-05  3.8378956705740234e-05  7.3684517825156894e-05  5.0615824012424513e-05  9.0462641962787876e-06  1.5483263386012301e-05  1.2656552547288015e-05  6.3818317054269492e-06  1.3871378211503148e-05  4.3799139581958647e-05  1.2903667047770952e-05  3.2859131169148024e-05  6.6122380440365573e-05  2.3706659669291990e-05  7.6452428455860911e-05  2.0842113550008170e-05  1.5520172309775691e-06  3.4892275750707767e-05  1.8681883894000391e-05  8.3552143592615055e-05  5.1333234800247040e-05  5.7723053830218199e-05  3.0640381101981093e-05  8.9510852852876593e-05  4.4969641254046915e-05  4.7426765828788233e-05  3.1861639660020588e-05  3.9738335837895713e-05  3.8004630202323293e-05  5.8454279745704615e-05  6.3100186529570763e-05  8.3520730359715496e-05  5.3698914623914691e-05  1.8496010276569614e-05  3.5921739956940628e-05  3.9939294204617757e-06  4.0013839938068301e-05  8.0491285750847327e-05  3.8100427553822321e-05  6.3724044841920679e-05  2.1908187659182262e-05  5.6982361940598943e-05  6.6459662513197957e-05  4.5159366228461510e-05  8.3613777454419054e-05  8.0771788919530591e-05  6.0061155887538202e-05  3.4457676200678905e-05  3.6906763637928061e-05  6.9339733803655719e-05  6.1088071427704756e-05  8.1925104502413747e-05  6.1379805095830765e-05  4.1537673937487236e-05  5.7526167946604673e-05  4.1182477638039153e-05  7.1056680603504279e-05  6.0925250418893714e-05  9.1853578535430869e-05  3.6844363380304425e-05  4.8520616628850773e-05  2.6026707608687819e-05  6.6773520152835876e-05  2.8189421676575999e-05  2.7182853555059896e-05  4.2282864679003142e-05  6.8822869728211582e-05  5.9044861111177819e-05  1.8323459546565081e-05  1.6205532554869922e-05  1.2175151051463000e-05  7.4354528259868683e-05  8.2099679905965785e-05  7.8181676123665548e-05  6.4915438751551283e-05  2.7237206743561964e-05  4.6806450022940508e-05  4.0239406793406047e-05  2.1511058302009472e-05  4.5604941206977190e-05  1.1185591740263554e-05  2.5903740866366539e-05  4.2614230154700022e-05  7.1098431933003710e-06  3.2330994721234822e-05  4.2249450833353303e-05  1.1696719252600627e-05  1.4005401112927075e-05  6.0048702385952560e-05  2.2305575937398559e-05  2.0526108021885178e-05  1.2031471588870585e-05  2.7588962143310015e-05  2.9678062690128238e-05  2.7389023766808340e-05  4.6518739904379184e-05  6.1277129602782488e-05  5.5520145510419202e-05  4.1412811259565658e-05  3.9767725583624278e-05  7.5790559668051220e-05  9.4425589799738228e-05  2.9510985849932668e-05  5.1570336651492384e-05  5.0184899841362690e-05  2.0157027140213949e-05  7.7006019837740548e-06  1.2484881403022535e-05  4.0566344477904736e-05  7.9469621206719617e-05  4.6743943588064837e-05  5.0640715239929244e-05  4.0275922814240397e-05  4.6217146982023118e-05  5.9884425440387453e-05  1.2686547825687397e-05  4.4898367794599941e-05  5.2203037408708036e-05  7.2203720253423810e-05  3.7540802989122823e-05  4.5631314653657016e-05  5.6265377822855288e-05  2.9896445716841720e-06  5.7935045904883031e-05  1.5987947137557824e-05  2.4887422703591606e-05  5.4168903671511868e-05  6.1979328720423071e-05  1.4999804985045937e-05  7.0056041000726016e-05  8.4630209166150655e-06  4.7363388768010515e-05  2.6816819241988449e-05  1.3234240416624682e-05  1.9548641855108136e-05  4.9124302713675977e-05  6.8491028329245266e-06  3.1441427785850701e-05  2.9849817191911811e-05  2.5507371245814829e-05  3.2444260384636863e-05  8.2886934167446203e-05  7.7805181527930238e-05  7.0537789586769237e-05  4.5953835654938715e-06  5.5708390810644496e-05  4.9629796742430564e-07  6.8666788699058221e-05  5.6712093688835209e-05  5.7493502435729408e-05  4.7652180750753310e-05  3.9849148818955271e-05  2.0167102946101776e-05  6.1498351356408174e-05  1.9944281773891286e-05  7.9860203768680746e-06  4.0323151371183115e-06  9.4565877821595337e-06  3.3098469251211395e-05  6.3528262623509710e-05  3.0920603136554523e-05  2.3794358645490611e-05  3.1483817062669052e-05  1.3503443075556699e-05  7.3265687779231514e-05  1.3383800287392601e-05  2.0425451335832228e-05  3.3971374215358391e-05  3.9601350428161805e-05  1.4552177807867929e-05  2.1689425228487508e-05  4.2506031083112615e-05  5.1806018545062165e-05  7.8402928222192210e-05  7.0888563536179678e-05  5.8648036413264302e-05  2.3252236211880964e-05  3.4338817698394424e-05  5.9449768968442435e-05  8.2140711634186362e-05  1.7882554345448288e-05  1.2886700795156162e-05  6.3160627945843135e-05  1.3763392579025583e-05  5.5541795282875601e-05  9.4621498211955890e-06  2.7964145111970524e-05  6.5298823850479899e-05  1.4187381090471439e-05  6.4832411601816383e-05  3.5947337505837869e-06  3.1633092378639569e-05  7.7557220306218678e-05  2.6841120670046806e-05  6.1340981809243950e-05  6.8296043616795801e-05  1.2459821818179322e-05  1.4525037539881843e-05  3.1774112447610791e-05  3.6479658530902959e-05  1.2788351990864866e-05  4.8871859492115561e-05  1.0710387545971208e-05  7.1167607431387760e-05  2.4590797545162955e-05  5.3631704918340166e-05  2.5953770881711567e-05  6.1910665821925909e-05  2.6096075985801919e-05  4.3590741969717966e-05  4.4941830699380257e-05  6.1012448831702989e-05  5.2534778975258935e-06  7.7765432695566482e-05  6.4502699969998061e-05  4.8251641018103414e-05  3.8040347342134345e-05  5.3151361961854905e-05  2.1508978023996989e-05  2.0274341795299406e-05  6.9489331409410031e-05  5.9687476678331457e-05  4.9598603224377169e-05  2.6878376148479225e-05  4.7259632114019361e-05  1.7799714678449074e-05  4.8879788511996790e-05  8.4797852755585338e-05  1.1759712561012347e-05  3.2207178524468847e-05  2.3617173761335050e-05  1.2910759285699046e-05  6.8109510465219283e-06  2.2222833951377276e-05  1.5811402202052423e-05  7.0949552622209103e-05  1.6107773012309108e-05  1.3303035940019032e-05  5.8821331789711528e-05  1.9528383368198068e-05  1.5659367350824446e-05  2.3125865620794058e-05  4.4144329002904398e-05  1.6044685995816850e-06  2.2754321933529957e-05  3.0099149447185658e-06  4.6725079456023572e-05  8.4787642891277855e-06  8.9161378972483863e-06  7.3484289314818964e-06  6.6199685413935911e-06  6.4269143331143331e-05  1.1553811480192261e-05  4.7574255868500204e-05  5.9198199440488245e-05  4.5712586148712682e-05  4.0715884202503240e-05  7.7491653342046284e-05  7.8764172791599615e-06  8.1442861506796942e-05  6.9867731112277233e-05  6.9417407895512888e-05  2.5021876984698393e-05  2.5106860966377097e-05  6.6103987863540116e-05  5.5043475209870160e-05  2.8248701003829032e-05  4.0439218097356578e-05  3.6051234144377827e-05  5.2327781880152198e-05  4.9204470246599932e-05  5.2709763868833759e-05  6.4578591188338115e-05  8.7195128272344631e-05  3.0181407794868462e-05  5.9316459305041746e-05  2.5136088248400369e-05  2.1604732570337581e-05  5.7329767884290968e-06  4.1605720482693104e-05  5.1195108675900995e-06  1.1937117413102020e-05  1.7151710598746346e-07  6.1822497563030391e-06  6.0816236241225679e-06  1.0953215509439538e-05  4.6523601145444851e-06  4.6789038854257253e-06  3.9017076937861551e-06  2.5920433921310646e-06  8.4105358039276194e-06  9.1367553296352692e-06  9.5091355467049108e-05  7.2903806397598278e-06  2.8869471840868343e-06  5.6825773995268480e-06  4.0326589278447677e-07  5.9574107550775802e-07  4.9003491521213933e-06  5.4508912184066676e-07  1.0183797473375659e-05  8.7471489477724124e-07  8.7983390886166633e-06  3.2737253321360255e-06  6.4173483428303911e-06  3.5509698307450345e-05  1.8911121446321733e-06  5.9857417053089249e-07  4.7391265758138255e-06  5.8198018622043083e-05  3.3771679636992807e-06  4.3068910095514973e-06  1.0442905456383903e-05  4.6441684305798470e-06  1.1424525533423637e-05  5.2310352476324321e-06  2.4017245576499037e-06  5.2980437542888273e-06  2.4969042269005283e-05  2.8996000882804522e-05  4.2795211800755397e-06  3.6555806794364686e-05  4.7293490568689498e-06  8.5791668314605018e-06  1.0688341743751758e-04  5.1309863019970542e-06  6.8935370464626266e-06  6.9520444481477393e-05  2.1882925276002262e-05  1.9367121737175559e-06  1.8215375768586814e-05  1.1721689463742681e-05  2.6175552094630510e-05  3.7143584398952170e-05  4.1641319409198319e-05  4.9651551355420734e-05  3.6043488977235283e-05  2.4719701965301284e-05  1.1983000261738489e-05  1.5249234598784432e-05  4.3195584083623951e-05  6.5729655656235095e-05  6.5831112846934854e-05  8.1896154617441290e-05  1.2614197093388364e-05  8.3667522170433544e-05  3.0007838344193371e-05  1.4212371090607808e-05  5.8626003909514250e-05  2.4965499150595940e-05  4.8975383900389483e-05  3.3797878807508313e-05  3.3172432171924854e-05  1.4018109910295443e-05  2.4042600284016018e-05  9.8502495626883027e-05  3.5647935507451622e-05  4.3234091330221109e-05  3.0135670043601829e-05  2.2726107216916452e-05  2.5021893024348713e-05  2.4461223682821155e-05  3.3213877034427404e-05  2.2605909524344973e-05  4.5493608549124639e-05  2.7280427402942268e-05  3.8910201077430428e-05  1.0690350340437278e-05  8.0668065436594708e-05  5.3705749641559672e-05  2.6441378243431435e-05  2.2166225882323982e-05  2.7144279827702056e-05  1.9041054990549826e-05  8.9857625093739673e-05  5.1289149785002018e-05  2.0915442549596445e-05  8.4069264396160874e-05  9.4859570554940961e-05  3.0651552492479950e-05  1.4831134082041227e-05  3.8404441880561926e-05  4.2259402355335393e-05  4.9296858564262820e-05  3.3457113257212834e-05  4.2800081010303002e-05  5.7106185420759887e-05  3.4232951862471019e-05  7.5416276344058298e-05  1.8178159903740091e-05  2.5791102302486660e-05  2.2411096543388240e-05  2.8898522780827959e-05  8.9013714697792785e-06  1.5493629864653079e-05  4.8327521027985269e-05  4.7735208946068072e-05  2.4862546979952004e-05  2.0672976950483366e-05  2.1019558883771598e-05  4.3745177149541403e-05  2.1607787584225774e-05  3.1656862180697919e-05  2.9814773577893433e-05  1.2119497177050838e-05  2.4220664452906767e-05  3.0062867427225119e-05  4.8998137304472026e-05  1.7750124272440558e-05  3.3422648521542443e-05  9.4380359540196255e-05  5.6031599989191996e-05  5.9428014879934193e-05  4.4037227813142589e-05  2.5478874183456609e-05  4.4747562140800878e-05  5.4322814991029686e-05  4.5073428525269950e-05  6.4925484422166381e-05  3.0027428302858297e-05  1.8927685314142068e-05  2.9878247699910524e-05  1.3906228106226640e-05  6.3688426715322681e-05  7.0920451202967789e-05  7.1252089413394360e-05  5.2020359537512650e-05  5.4648214127230632e-05  6.2454301559147820e-05  1.5068837752490840e-0