<?xml version="1.0"?>
<VTKFile type="UnstructuredGrid"  version="0.1"  >
<UnstructuredGrid>
<Piece  NumberOfPoints="25605" NumberOfCells="50056">
<Points>
<DataArray  type="Float64"  NumberOfComponents="3"  format="ascii">0 1 0  0 0 0  0.125 0 0  0.125 1 0  0.125 0.5 0  0 0.5 0  0.125 0.25 0  0 0.25 0  0 0.75 0  0.125 0.75 0  0.125 0.125 0  0 0.125 0  0.125 0.625 0  0 0.625 0  0.125 0.875 0  0 0.875 0  0 0.375 0  0.125 0.375 0  0.125 0.3125 0  0 0.3125 0  0.125 0.4375 0  0 0.4375 0  0.125 0.5625 0  0 0.5625 0  0 0.6875 0  0.125 0.6875 0  0.125 0.0625 0  0 0.0625 0  0.0625 0 0  0.125 0.8125 0  0 0.8125 0  0 0.1875 0  0.125 0.1875 0  0 0.9375 0  0.125 0.9375 0  0.0625 1 0  0.0625 0.78125 0  0.0625 0.09375 0  0.0625 0.65625 0  0.0625 0.53125 0  0.0625 0.40625 0  0.0625 0.21875 0  0.0625 0.90625 0  0.0703125 0.71875 0  0.0703125 0.15625 0  0.0546875 0.46875 0  0.0546875 0.59375 0  0.0625 0.3385416666666667 0  0.0546875 0.84375 0  0.05338541666666667 0.2786458333333333 0  0.046875 0.046875 0  0.078125 0.953125 0  0.03125 1 0  0 0.96875 0  0.09375 0 0  0.125 0.03125 0  0.0375 0.953125 0  0.08749999999999999 0.046875 0  0.125 0.28125 0  0.08857717803030302 0.296875 0  0.08456307870370371 0.2527488425925926 0  0.08432904411764705 0.8157169117647058 0  0.125 0.78125 0  0.08432904411764705 0.4407169117647059 0  0.125 0.40625 0  0.04067095588235294 0.1842830882352941 0  0 0.21875 0  0.04067095588235294 0.7467830882352942 0  0 0.78125 0  0.04067095588235294 0.6907169117647058 0  0 0.65625 0  0.04067095588235294 0.1282169117647059 0  0 0.09375 0  0.09230469604198556 0.4788378714055325 0  0.08432904411764705 0.5657169117647058 0  0.125 0.53125 0  0.09230469604198557 0.6038378714055325 0  0.09230469604198557 0.8538378714055325 0  0.125 0.21875 0  0.04036458333333333 0.3723958333333334 0  0 0.40625 0  0.125 0.34375 0  0.09223090277777779 0.359375 0  0 0.34375 0  0 0.71875 0  0 0.15625 0  0.03125 0.640625 0  0.03125 0.234375 0  0.09375 0.921875 0  0.03125 0.796875 0  0.09375 0.765625 0  0.03776041666666667 0.8776041666666666 0  0 0.90625 0  0.03125 0.421875 0  0.03776041666666667 0.5026041666666666 0  0 0.53125 0  0.08723958333333333 0.1223958333333333 0  0.125 0.09375 0  0.03125 0.546875 0  0.09375 0.515625 0  0.08723958333333333 0.6848958333333334 0  0.125 0.65625 0  0.08723958333333334 0.1901041666666667 0  0.09285237672216495 0.6388297534443299 0  0.09120871566215796 0.887895068675684 0  0.03697337403288202 0.3117847356544165 0  0.03125 0.078125 0  0.03125 0 0  0 0.03125 0  0.125 0.96875 0  0.09375 1 0  0 0.28125 0  0 0.46875 0  0 0.84375 0  0 0.59375 0  0.125 0.15625 0  0.125 0.71875 0  0.05859375 0.625 0  0.09203062351730669 0.3280299106084038 0  0.125 0.84375 0  0.125 0.59375 0  0.125 0.46875 0  0.09375 0.4106043198529412 0  0.09375 0.2226289308756895 0  0.125 0.90625 0  0.03125 0.9082327178030303 0  0.09375 0.0917672821969697 0  0.03157790017660633 0.3424870324872683 0  0.02669270833333333 0.2643229166666667 0  0.06829273545144836 0.4982032167254387 0  0.06675762813866792 0.8709439182360006 0  0.05576041429493017 0.2497890636858682 0  0.02734375 0.609375 0  0.02728074596774193 0.5779989919354839 0  0.02734375 0.453125 0  0.02734375 0.828125 0  0.09765625 0.734375 0  0.05493844330495356 0.4393276533475232 0  0.06816449879002234 0.7535164975800447 0  0.05493844330495355 0.5643276533475232 0  0.05493844330495355 0.8143276533475232 0  0.0299965987454304 0.71875 0  0.02999659874543037 0.15625 0  0.0813426135756993 0.3853350519425603 0  0.09765625 0.1637369791666667 0  0.06467653953877486 0.310910294982067 0  0.02169857614656033 0.203125 0  0.02524899995375509 0.1051854999075102 0  0.09975100004624492 0.5426854999075101 0  0.09975100004624492 0.7926854999075101 0  0.02524899995375508 0.6676854999075101 0  0.0216985761465603 0.765625 0  0.04823956951149876 0.928748603739466 0  0.046875 0.9782291666666667 0  0.0671875 0.06614583333333333 0  0.078125 0.02177083333333333 0  0.02127436155913977 0.390625 0  0.1006667715324385 0.7079051314317674 0  0.02433322846756151 0.8545948685682326 0  0.02433322846756151 0.4795948685682326 0  0.06536484344506666 0.3645784953935692 0  0.1057502727878818 0.265625 0  0.09765625 0.97265625 0  0.07158549886191198 0.9769868329539707 0  0.02083333333333333 0.046875 0  0.046875 0.02083333333333333 0  0.1015625 0.9453125 0  0.105773175265869 0.578125 0  0.105773175265869 0.828125 0  0.1057731752658691 0.453125 0  0.02403140427485829 0.9326371297403401 0  0.03105806221105027 0.2882216937203155 0  0.02269345238095238 0.02269345238095238 0  0.02265857126276695 0.9773414287372331 0  0.1023414287372331 0.02265857126276694 0  0.1050021911266925 0.1399031244962927 0  0.1004761981537389 0.6631336343087164 0  0.01789242097701151 0.515625 0  0.1053197095586611 0.3892428214300389 0  0.1071947968863412 0.203125 0  0.06483609068627451 0.1801470588235294 0  0.06307444852941177 0.1182598039215686 0  0.06307444852941178 0.6807598039215687 0  0.07134406133247276 0.9276243773350545 0  0.107023448305187 0.110594895408122 0  0.01797655169481303 0.8894051045918779 0  0.0896290604425302 0.06945979794392823 0  0.01643913299282548 0.359375 0  0.04012690145502644 0.5255663029100529 0  0.07724934918388508 0.2756598204935206 0  0.04333510829975742 0.3946172288681074 0  0.04382482319049504 0.7689316254597454 0  0.04078217840056862 0.2143768568011372 0  0.01872387163348762 0.3244028916671824 0  0.0195742471369305 0.6987325881931771 0  0 0.734375 0  0.0195742471369305 0.1362325881931771 0  0 0.171875 0  0.125 0.078125 0  0.02106088043659297 0.7382013359382263 0  0.02106088043659297 0.1757013359382263 0  0.0497677502679564 0.1647704182208795 0  0.1041623508625682 0.2422658327302558 0  0.125 0.421875 0  0.1039703258643078 0.4303318325659762 0  0.05877296560275284 0.7012639504860959 0  0.0501545493727152 0.727123133991979 0  0.06896549282708588 0.8291595335799418 0  0.06896549282708588 0.5791595335799418 0  0.05561978654147531 0.1989614820041244 0  0.07032296246331207 0.4254414436261769 0  0.05877296560275287 0.1387639504860959 0  0.06896549282708585 0.4541595335799418 0  0.07859817667287269 0.7952004746267884 0  0.07859817667287269 0.5452004746267884 0  0.1054638298647563 0.05657430832458488 0  0.0578125 0.9598420210926695 0  0 0.953125 0  0.0671875 0.04015797890733056 0  0.07649432244045254 0.2338267641856086 0  0.04866265018175087 0.3532402205496085 0  0.04529605546323741 0.670940902672186 0  0.04529605546323739 0.108440902672186 0  0.07114475473057193 0.6075619837836785 0  0.1053722369453574 0.2857608974857906 0  0.1041142204473487 0.3109216152144918 0  0 0.296875 0  0.01867881746150348 0.3038534200233671 0  0.05524134160257502 0.5129465446468287 0  0.06099431830938445 0.3844706742360927 0  0.1038714447569958 0.4968053895139916 0  0.07261836495365119 0.8520669608573707 0  0.125 0.859375 0  0.1042195743166846 0.871267532383033 0  0.1042953726576324 0.6211504246078988 0  0.07222987402884687 0.4785156251683452 0  0.125 0.328125 0  0.125 0.984375 0  0.08224716045754427 0.65550416509288 0  0.07174465449286124 0.6392252775633923 0  0.104342652316052 0.903997804632104 0  0.08499844918863737 0.142434120427652 0  0.0844985192851985 0.6214602780221394 0  0.04739583333333333 0.06666666666666667 0  0.05529012802864505 0.8874707890510186 0  0.07963297040422486 0.2085407376975881 0  0.1058968411519645 0.6894306991298484 0  0.07766817664565827 0.1056561296393557 0  0.1057560771716062 0.1835282231549565 0  0.07773382092984268 0.7013018062982547 0  0.04305452277962929 0.4840923655564813 0  0.04305452277962929 0.8590923655564813 0  0.01875 0.950780111105415 0  0.07024795506527168 0.2930300420408972 0  0.0478397200304771 0.2965328103930845 0  0.05121648255071443 0.3237514478060962 0  0.08754502715293848 0.4598932538963194 0  0.08754502715293848 0.5848932538963193 0  0.08754502715293848 0.8348932538963193 0  0.0809015012254902 0.1712526807598039 0  0.01829563924765609 0.4971063294237891 0  0.125 0.640625 0  0.1084926420285044 0.3359375 0  0.1063049178180489 0.07791358842139073 0  0.07632685032323469 0.08189787709891407 0  0.07651225432210323 0.3501759166473921 0  0.1069221282820671 0.370738774849029 0  0.1067803879682793 0.8097224268749272 0  0.1067803879682793 0.5597224268749272 0  0.0732493355785593 0.8876902320260575 0  0.01502467351849249 0.9167032210578127 0  0.08615695482809546 0.4994098249368031 0  0.125 0.890625 0  0.02098784564269657 0.8719694826931684 0  0.08605728693236238 0.7487942702415453 0  0.125 0.484375 0  0.06046421450728726 0.9420052721508373 0  0.109375 1 0  0.08004180148148797 0.777271102962976 0  0.04883736512240355 0.2304872302448071 0  0.04561230035288119 0.7865371007057623 0  0.04586777931655463 0.4120480586331092 0  0.04802334735844737 0.5413591947168948 0  0.08580129279582045 0.9374318963979102 0  0.01822916666666666 0.06510416666666667 0  0.01726601304092138 0.6517195260818428 0  0.01726601304092139 0.08921952608184278 0  0.04468848999483189 0.6528105200103362 0  0.01827879140158732 0.7837549171968253 0  0.01825288449808249 0.408806731003835 0  0.03971354166666667 0.6236979166666666 0  0 0.421875 0  0.015625 0.4296875 0  0.01816132012761036 0.5339898597447793 0  0.01888020833333334 0.6263020833333334 0  0.04468848999483186 0.09031052001033626 0  0.01827879140158732 0.2212549171968254 0  0.07457391546693767 0.5163353309338754 0  0.125 0.921875 0  0.1077339869590786 0.5267195260818428 0  0.1077339869590786 0.7767195260818428 0  0.1101351348842065 0.759332769768413 0  0.08233437225029967 0.9056437554994007 0  0.0184015012254902 0.2477405024509804 0  0.01883462974062772 0.5611067594812554 0  0.01888020833333333 0.8111979166666666 0  0.1086095656153081 0.3533788510713674 0  0.06562230895048585 0.7359098273357195 0  0.03710573475337388 0.8426414021221816 0  0.03710573475337388 0.4676414021221816 0  0.125 0.671875 0  0.125 0.609375 0  0.1076303706657158 0.4704816551506308 0  0.1095065661265748 0.8515625 0  0.1076303706657158 0.5954816551506308 0  0.03385416666666666 0.03571428571428571 0  0.0863546556944139 0.8706926289304113 0 
[...]
<PointData  Scalars="elv"> 
<DataArray  type="Float64"  Name="elv"  format="ascii">1.1167080895906351e-05  1.3261035066174433e-06  8.0535370761275904e-07  5.3560543486841505e-07  3.7441557460920584e-06  1.2313785147391580e-06  6.3021547715247046e-06  2.6212525824005614e-06  1.0515025921773525e-05  2.6213275845151374e-06  8.6215320108783522e-06  7.8172663910835660e-06  7.3005578959255583e-06  1.9228336046108465e-07  9.2554613937452795e-07  2.1350134978942796e-06  2.4700580596161731e-06  2.9515035598720457e-06  8.3808697890223169e-06  8.7122449113105318e-06  1.0029516660641035e-05  7.2935522309970557e-06  6.7859537287763537e-06  9.1022188874701781e-06  2.6257094228575334e-06  8.9201829345615389e-07  5.2920244220739521e-06  6.6010307866744318e-06  6.9610147070699538e-05  9.6246053986887755e-06  5.2834382254864385e-06  2.6855259709642711e-06  8.4261428429002892e-06  1.1366937462858526e-05  7.1792223747983504e-06  5.1905232209400876e-05  4.4775229161378889e-05  2.4265929864231220e-05  3.0381436905785723e-05  4.5076365216957181e-05  3.2904793470913562e-05  4.3332261801682795e-05  3.4712460229692595e-05  2.7651215968027289e-05  3.8648247552066180e-05  5.2201728752513999e-05  4.3213614892517350e-05  5.0185513246292744e-05  3.6009217194663053e-05  4.1011725265276632e-05  2.8659146908146023e-05  4.0703996606781163e-05  3.5448044664853823e-05  8.7350631903824346e-06  2.7108002642022870e-05  9.7515147371252551e-06  1.9161163155846382e-05  4.3324209004551446e-05  3.2978448046325077e-07  2.6179345603837535e-05  3.4437079947699308e-05  3.1899703185602304e-05  1.2167018859043784e-05  2.7525606114769020e-05  3.6189389912333045e-06  1.7599960173213076e-05  1.2085326823731317e-05  4.2507991430443823e-05  1.0516154198016493e-05  2.8737992487396930e-05  2.4368897055215027e-06  2.6018646427427968e-05  1.2344463882062739e-05  3.3810911577717977e-05  3.5354743149404828e-05  4.1642465739980057e-06  1.6663912201326166e-05  1.7175286987798571e-05  5.2876563040761357e-06  2.7944491605926898e-05  9.2731488186522078e-06  9.5632882695866170e-06  1.6277377958135889e-05  1.5708086885021665e-06  5.9454110594326224e-06  5.5271112002337243e-06  2.4127989172439164e-05  1.3781246506296430e-05  2.1335693244969938e-05  1.6341701698570138e-05  1.3912566294941409e-05  2.0505285316974929e-05  5.7841014168960815e-06  3.4389461733938504e-05  1.6826445762920280e-05  6.8732990131771074e-06  2.5975732910316805e-05  1.0900741394637420e-05  3.4203399091595943e-05  3.2543295785475340e-05  4.9873013513339300e-05  1.3822184077913289e-06  3.0217080225152082e-05  1.4810521355786693e-05  2.3099369622739514e-05  2.1216895665944127e-05  2.0132663860103059e-05  4.4041691436822586e-05  6.0626225025203297e-06  6.2892046939026784e-07  4.7006915634005747e-05  4.5859342176332879e-06  4.1373944613954870e-06  5.0021093902722808e-06  4.8588296816970551e-06  1.1645761820164450e-05  2.1772444082786546e-06  4.9106887530649262e-05  2.6367804156867482e-05  3.1986671922951338e-06  4.4549710297848611e-06  1.6348818856840031e-06  3.1333246714146975e-05  1.7088544993119084e-05  1.0323652435767980e-05  2.1064597122290612e-05  1.3006083392439252e-05  3.6684636677094749e-05  3.8897507243395132e-05  5.4828738502126481e-05  5.5429458790681655e-05  3.0247737498534536e-05  1.7520382263919183e-05  1.7737601323813561e-05  1.5189173969954780e-05  1.7005736393349911e-05  1.1747893956881141e-05  3.7399212759413683e-05  4.1332892937754367e-05  3.9213501314400737e-05  3.8560761699607512e-05  4.0593530775278115e-05  2.3768841597212655e-05  1.8643612549406717e-05  3.9942821520487581e-05  4.7066269623078367e-05  3.6893419835869026e-05  3.5063646222622207e-05  2.0669902764678924e-05  3.6571318159758799e-05  2.7781586590953949e-05  2.2993189024951106e-05  3.8376690665404310e-05  4.1589071929338372e-05  5.0534578023625411e-05  4.0273624459525334e-05  3.1688435433718310e-05  2.4452561092672405e-05  2.7081882419015788e-05  3.8376968306320136e-05  3.8616662810712922e-05  3.6245429627621303e-05  1.4005568502014970e-05  3.0940324425658029e-05  3.9974348395897771e-05  3.0076889535206878e-05  1.9348133621897731e-05  3.3795152803229492e-05  1.3089903141738514e-05  1.1246454273299315e-05  2.2771714538870505e-05  1.2807239584451243e-05  1.3930528856077372e-05  2.4656232345998424e-05  1.9352259763277102e-05  9.0755910590329875e-06  1.6581464614285114e-05  1.1592913633270670e-05  1.0511649287248432e-05  6.5026934082945043e-06  4.0862096939243921e-05  4.5923974983251815e-05  4.0890150444108102e-05  4.5181660982050133e-05  3.8505014698933082e-05  6.6037109085353868e-06  2.8964392104224854e-05  1.8138120339232301e-05  3.5619269381326035e-05  4.6913670488422300e-05  4.5826545684713871e-05  3.5956415343116189e-05  3.1147895787481876e-05  3.2434735509910770e-05  1.2712372841188807e-05  1.2471911379658075e-05  1.1749622595202585e-05  7.3153293346845271e-06  1.1839842367028541e-05  2.0798754118346622e-05  8.5084653910074533e-06  3.7010013517812818e-05  1.3135437844245337e-05  3.2504117957998807e-06  1.6383359621718396e-05  3.9219105001571963e-05  4.8392291714875692e-05  4.6855540118604570e-05  3.8136759770728308e-05  3.7020849752345950e-05  6.2270275362508388e-05  4.6832799057089621e-05  4.4660195583369944e-05  3.5588668553906983e-05  3.5146924624527163e-05  1.7227467423740633e-05  5.8153486053763803e-05  3.6417392385771992e-06  5.0103231244617257e-05  3.5260647357099313e-05  5.3478301744561593e-05  5.3373332976893845e-05  4.6291600244313083e-05  4.2409571778533449e-05  3.0907367865919822e-05  1.3631283503367284e-05  4.1798205823416564e-06  2.7599707926131346e-05  3.0393688823911503e-05  4.1537179474067653e-05  1.8548828170904145e-05  3.4672805181355973e-05  1.2021688021077388e-05  1.3980887722519758e-05  3.3912827796749242e-05  3.0944047941082413e-05  4.9497208731700910e-06  1.8276322920223548e-06  1.6901363500460285e-05  3.1986131845211644e-05  4.0055964357253492e-05  1.7147353445577504e-05  3.4451275442844713e-05  3.1926489419195301e-05  2.1438587243308631e-05  2.1965394935615831e-05  2.5601936224283250e-05  3.0122798707701479e-05  1.7967310818581806e-05  2.6120990068865949e-05  3.6885117524591137e-05  5.0252779823368578e-05  1.0878006451947346e-05  4.1346078252114187e-05  2.6807696289478012e-05  3.2539615607376546e-05  1.9210832416036038e-05  2.0152851163640542e-05  3.2394991800305764e-05  4.0151987376840224e-05  1.4746474746092658e-05  5.8868513356729131e-06  2.5906149446177302e-05  1.4226686021913725e-05  2.2723604309988398e-05  2.5580698391555242e-05  9.7602502687556059e-06  1.6739571848543084e-05  2.0110023744029745e-05  3.7513736964865840e-05  2.5579455347758540e-05  5.1207290952141082e-05  1.0534212437219003e-05  2.6592543877360875e-05  2.7498296819129794e-05  9.8987085470575885e-06  3.9708616565242648e-05  2.5585407072259368e-05  2.1749844940514007e-05  3.3239496062755568e-05  2.6494870128176350e-05  4.7368219030596372e-05  3.7486864925556408e-05  4.1020069893933215e-05  1.2422761888806888e-05  1.3267732966540413e-05  2.3165154286728754e-05  5.1663735652152249e-05  1.9091853035268593e-05  1.3045438868206419e-05  3.5710573143391222e-05  4.3309826727986491e-06  2.4929530144703623e-05  1.3787570897506812e-05  1.5745721795023998e-05  4.6474049450724741e-05  2.5359682765857858e-05  4.1456442163552663e-05  1.1729185056076280e-05  1.3693280939262594e-05  7.8092392079586958e-06  2.1822412697684734e-05  4.3168998771613060e-05  9.4121006612376230e-06  1.5187594275160752e-05  9.0531176986540740e-06  2.4356787093261941e-05  2.7928757067420633e-05  3.3787140765574734e-05  3.1040683047959760e-05  4.8641972593743698e-09  1.0999903235660386e-05  3.1413322037508835e-05  1.7627363749496706e-05  1.0968250360694172e-05  2.1006849227301096e-05  2.8965086193278021e-05  6.2645731074192501e-06  9.2085678781653704e-06  3.7268178866205616e-05  6.0599302135292398e-05  7.3772938476253050e-06  8.4574293244237545e-07  1.1283311027513976e-05  1.5852176013670741e-06  4.5618087763710405e-05  4.2299675751262899e-05  6.1581282328549935e-05  3.3814037179097073e-05  2.3097072389551990e-05  1.2237145462601640e-05  3.1644718119772099e-07  2.6394960533397211e-05  2.4441183321023758e-05  4.2986466362061145e-06  7.8514923358479765e-06  2.2810396948620475e-05  2.4582697725783704e-05  1.0109840144119527e-05  1.2034406689740702e-05  3.2215284535352632e-05  2.0062367843476235e-05  2.3917009225198501e-05  1.2766552651505406e-05  3.4492247905599668e-05  2.0040451428434230e-05  5.1663936491062672e-05  1.4495582082996538e-05  2.3587415361580727e-06  1.5293592688669547e-05  6.5344827911378832e-06  1.8414620686090361e-05  3.6810422744132325e-05  1.1130969614262104e-05  3.6303956837339309e-06  1.6322500850835808e-05  2.0960526626395753e-05  1.1489785111658113e-05  4.4675071822558868e-05  3.1548397842840514e-06  3.1037580509862268e-05  3.8465839448457799e-05  1.9983053937020477e-05  3.5755406122184709e-05  1.0290303684273854e-05  8.5869024915269711e-06  1.2174631516551161e-05  1.4027166016310947e-06  1.8010312151627477e-06  2.6590984952763940e-05  6.9515922713075849e-06  7.8875702708299369e-06  2.4510736132945149e-05  1.2401893256536262e-05  3.9874362059892793e-05  2.2122559432726502e-05  1.6139690271295966e-05  3.2696366440393810e-05  3.7193170412703494e-05  9.9216485284185781e-06  2.3741358839729695e-05  1.6866665220484506e-05  6.3508095957139289e-06  3.4272894200341648e-05  1.2471356681694589e-05  8.2664908282404105e-06  8.8758779928005679e-06  2.2268593099745434e-05  1.9469584877592273e-05  3.1470233793893603e-05  1.1542607094374621e-05  1.0730539959166056e-05  4.8798316755992471e-05  7.8440618044792232e-06  6.3337799100552837e-06  7.6675657752249670e-06  5.9923302723125246e-07  1.7599385136647523e-07  1.2305823981074535e-05  1.8791992788936800e-06  6.0926348495174605e-06  3.3044848303165414e-06  1.7859265487887313e-06  6.9017817251137500e-06  1.1943793718907649e-05  5.0198822692566791e-05  8.5500183174414724e-06  1.8926818519979448e-06  5.0007213934103657e-06  6.4771033200298913e-06  4.1854268259647429e-05  5.8251273263075371e-05  6.4961015840590282e-06  1.2128059344091584e-05  1.0597298146777929e-05  9.3012408407690008e-06  6.2794253217410084e-06  1.0259649902017578e-05  4.1671270164584897e-06  2.8265021064152489e-05  3.6482446241853630e-05  5.1860639700582749e-05  4.3944075872690588e-05  3.3815821585190228e-05  4.3285148421080096e-05  3.5528277659182636e-05  3.3435562118662694e-05  2.8961125991345506e-05  3.2749549027630001e-05  3.2074779258579076e-05  2.2016747385763159e-05  3.4507928481187144e-05  1.7460390440187480e-05  3.4402097037154150e-05  3.3542365809101372e-05  5.1509472620894187e-05  9.1005426626179202e-06  2.1856474806887559e-05  4.2918104323630021e-05  2.8437808211078580e-05  4.7370194866509514e-05  2.4411471113364459e-05  1.4454522748478169e-05  5.5322118549105411e-05  5.0652567591306850e-05  1.9815168982994155e-05  4.4959225639155839e-05  1.8049005574889325e-05  3.3395056737651667e-05  2.5462052367131151e-05  5.1953848353664846e-05  4.9903604789929285e-05  4.8967373470549734e-05  2.1990346744339561e-05  3.6998372588864303e-05  1.6299268431749536e-05  1.9223047573944176e-05  2.1904288580838319e-05  3.7693935680996367e-05  2.5098707015792797e-05  2.3365539126832506e-05  8.8895226612317170e-06  2.3062067236144655e-05  1.5075286223072454e-05  2.3281167194792695e-05  5.3621732124123249e-05  2.3435373959122937e-05  1.1321392969552739e-05  4.7743143852229804e-05  3.3353147529382757e-05  4.6198934872894492e-05  3.2018674337694331e-05  4.9533579001593369e-05  3.4394569007077820e-05  3.2077281098594913e-05  2.3437392740172645e-05  1.4315290920629881e-05  4.3565634529873916e-05  2.5793366169291643e-05  2.1130767019877743e-05  2.4188118245877797e-05  9.2782617097072569e-06  8.4923492416920736e-06  2.3095377513255690e-05  4.1499524604125355e-05  1.9788773764803614e-05  2.3583226022363776e-05  3.1904501468344156e-05  8.5837114399455117e-06  1.1824220479891403e-05  1.5974206531710360e-05  2.1247589299141919e-05  9.7002350148798327e-06  3.7733579115963245e-05  4.5576801198056676e-05  2.3154879614447373e-05  7.2666721538877053e-06  3.4866325332287688e-05  4.4721545878636416e-05  5.6044597134851007e-05  1.4535115634613085e-05  4.3609522917795696e-05  3.2030585023364493e-05  4.6368110407706043e-05  2.6171434030156919e-05  3.4224603613327313e-05  4.2703716307643349e-05  1.7541571045821652e-05  2.7587722741390965e-05  2.6864882263581083e-05  2.1607133458034363e-05  2.2297425899326372e-05  3.6146021249414957e-05  1.6509143119019230e-05  1.5560777918305934e-05  2.1775708210577965e-05  1.7172360891039950e-05  1.0365732042693378e-05  2.4332103239611714e-05  7.4456375063815348e-06  5.9747091266974625e-05  1.6960436546819978e-05  2.0505595995810061e-05  2.2858234278597007e-05  3.5656885917866870e-05  4.2955262176642644e-05  3.3871591332212107e-05  3.3623553287575545e-05  2.9695056172942260e-05  4.2735398327936299e-05  2.2458280677352400e-05  9.5740300073146976e-06  2.9540996356117076e-05  1.6613043846201306e-05  1.0554833417630165e-05  5.2699562597514106e-05  2.2253080550528004e-05  6.7052881019397621e-05  1.6671893979924834e-05  1.6389417136013592e-05  3.4618928274155689e-05  3.0876215948838103e-05  2.1850977439692480e-05  2.7784076577144335e-05  2.6815796074805997e-05  1.1086212135617966e-05  1.6133598916730561e-05  9.1918195673491827e-06  1.0317254840905217e-05  1.3115297252658071e-05  3.9346722834478924e-05  2.6937568988774228e-05  5.6730319482273977e-05  5.8233581676531380e-05  1.4320693323378269e-05  3.6130001760881271e-05  1.4410181194979350e-05  2.7043348761543583e-05  2.0687222393572247e-05  2.1161180701752792e-05  1.4237877789112894e-05  7.2307340715519221e-06  4.5152105666947161e-05  2.1706271734128087e-05  1.6722995451111088e-05  2.1546401719726559e-05  2.7737323438434427e-05  1.9169016708333941e-05  1.2639408602506289e-05  6.8663012953567507e-06  8.2978052923888115e-06  1.7288835207375375e-05  3.4794033210348519e-05  1.2669962046715683e-05  2.4958523658076300e-05  3.8315269342116747e-05  2.2196118143012326e-05  3.8493693214417075e-05  3.1311958490991734e-05  2.8231996073771280e-05  1.5721785682194323e-05  2.4465447542173213e-05  1.3937870953501604e-05  3.3340685224387474e-05  3.3185005767753660e-05  4.6850090649351951e-05  4.1150800129767283e-05  4.1262906041909365e-05  3.0166408764860138e-05  2.4827014904925091e-05  5.3357337707040186e-05  5.2246014824831027e-05  1.4369453378534547e-05  1.9372828851044755e-05  1.3173026058790709e-05  2.3581605353343719e-05  1.2270636307691338e-05  1.7183418963800035e-05  6.2188078612913464e-06  6.1481605737376487e-06  3.3768302372750772e-05  2.0483014124539263e-05  1.3753704044249873e-05  2.8875319667557884e-05  5.6984998339393327e-05  2.4881065471911334e-05  3.5479524328299959e-05  2.1595277037910505e-05  1.2426338837899673e-05  1.3368861151010316e-05  5.6341562902450958e-05  1.4982301194334085e-05  5.2774706318273299e-05  7.0881018684200440e-06  3.0474116366327578e-05  2.9564796970585294e-05  1.4747593650683061e-05  4.1162543622446575e-05  2.9791012728719361e-05  1.8580175494475378e-05  3.8853168396583125e-05  1.0941711897852529e-05  6.0207277954792825e-06  3.0369970693014087e-05  2.2569500936486302e-05  1.1347970786791507e-05  2.2132139818722678e-05  5.4195695952767277e-05  2.7327466731175699e-05  5.0622995105666658e-06  7.6829259771070847e-06  1.5828444514442187e-05  1.3383086794315747e-05  1.4778562033565407e-05  2.0414923766445209e-05  2.2884780326307009e-05  1.3765146222787164e-05  2.0273695784930008e-05  5.0537971510149496e-05  3.2853954520928558e-05  1.5569951452502752e-05  1.6895274812846236e-05  5.1881942547145747e-05  5.0706602099795932e-06  3.4032595869014540e-05  3.0600830995776306e-05  4.9571376415887220e-05  4.9452045811006911e-05  2.5617005038391588e-05  6.6238743191489253e-06  1.0117968102791319e-05  1.2828905282506458e-05  8.7554046394260665e-06  2.0162641634329884e-05  1.7635817483396239e-05  2.1471107942738652e-05  1.8486352095975570e-05  1.4767624801651148e-05  1.5495029633902787e-05  3.9748211649956024e-05  4.3125924385725515e-05  4.9262554193764329e-05  7.8050996658085641e-06  2.5851572996732677e-05  1.0273911531862393e-05  3.4493201352292827e-05  7.4095771263465267e-06  1.8059310091391734e-05  6.9365736496465566e-06  1.5564052757512082e-05  1.5668710694118240e-05  1.9570545253643929e-05  2.1043650758530283e-05  7.9599873854075578e-06  3.9277027899411599e-05  8.0714899264467504e-06  3.4360927678536680e-05  1.1309508522607200e-05  1.9708222349160173e-05  1.5606562384923067e-05  2.6285863765465708e-05  8.4674552702684929e-06  1.9429183217322387e-05  7.4803145493462852e-06  2.5242160377202827e-05  2.8992142937194429e-05  2.1060631569462494e-05  2.8323151377717408e-05  4.7089607234109156e-05  3.6292592659214589e-05  2.7534534067141268e-05  3.3460243880563654e-05  1.9795517608949476e-05  3.5400665465139692e-05  4.9714727261310702e-05  8.6005799385615889e-06  1.0775889838825192e-05  4.0259317807856809e-05  4.4416099012126585e-05  4.5979544553594208e-05  1.9166630941912932e-05  1.7408394658722986e-05  1.7424609742328647e-05  1.0996903025321055e-05  3.7195676618929178e-05  2.8769310340752305e-05  3.5232927165168131e-05  1.7547070541737450e-05  3.2004694334064440e-05  3.9936626490008368e-05  2.2862927602953307e-05  2.1840509623549623e-05  1.5813825404801317e-05  2.3360559051593576e-05  4.9017898734185558e-05  4.8994119351950644e-05  4.1139387041158299e-05  5.6020602446345112e-05  1.2094351115411680e-05  2.6827659899272422e-05  3.2468851181079811e-05  3.5625380678759733e-05  4.7119011008615671e-05  2.3321545910859150e-05  2.1528342411344261e-05  9.5766808758443236e-06  2.3167683528705947e-05  2.9506752454998844e-05  6.1709820217072038e-05  3.7037057374393435e-05  5.7359757503760643e-05  3.0841750102005660e-05  2.8561700001134724e-05  3.9369315871312337e-05  3.2051716503283850e-05  4.3405290117764517e-05  3.7722937790009299e-05  1.9169361920980275e-05  1.2994255897779249e-05  1.2570165474162525e-05  3.5247909877494024e-05  4.2655789325484427e-05  5.6485355349187174e-05  2.9486580090829666e-05  5.8101305020818382e-06  3.0389074266431458e-05  1.0940037702928765e-05  1.9965829560595197e-05  3.0114372211007147e-05  1.8819770444698369e-05  6.0809105869960326e-06  2.4034084511128199e-05  5.4276817918141460e-05  5.0197902385810017e-05  3.4375245172893254e-05  3.6515713302116841e-05  2.3184184594909637e-05  1.7214380355791064e-05  1.5844351042758694e-05  2.4602964645792674e-05  6.4246001864834025e-06  1.8881739641678241e-05  4.2912521482801248e-05  1.1008609274190097e-05  7.1733172018019391e-06  1.2068818722397966e-05  1.6184441242878128e-05  1.4425219384514239e-05  3.9289203832974651e-05  1.6161164128872063e-05  1.5887052950509475e-05  1.5683987324788538e-05  3.0200915629886600e-05  2.0161858279660642e-05  2.2397240763524364e-05  6.0758471816608986e-06  2.7963409669986004e-05  2.0640091927643001e-05  2.1390963942158824e-05  2.3653204660398189e-05  1.9851229581860545e-05  9.3127287520034533e-06  2.5023369691950153e-05  1.4887996792654219e-05  9.7770104942725903e-06  5.4981714189036633e-05  2.6857041747475547e-05  2.7179211547818351e-05  3.7798737073544546e-05  4.7700316801070532e-05  4.3261971994819116e-05  4.2646938422024724e-05  8.7290278550124782e-06  3.4903786007688048e-05  3.4054687909723755e-05  4.2489103564397292e-05  5.7819130604148039e-06  1.7806974105326985e-05  4.9885242497098222e-05  2.7282971876626723e-05  2.7587076907566648e-05  2.5606858778912578e-05  4.1198859146859071e-05  4.8342477326211372e-05  5.1063437679455994e-05  2.9796173106535254e-05  1.2166370248011766e-05  3.9273094148568724e-05  3.3865498068594270e-05  8.4188049794958515e-06  2.7483586614361396e-05  2.8331498371572553e-05  8.5958423870163698e-07  1.5128587429311889e-05  2.3137106637830692e-05  3.4769873150048431e-05  1.0802420336700697e-05  3.0405138805902144e-05  9.3029444041585816e-06  9.0615693667123842e-06  2.8193844184426613e-05  1.3462098119362581e-05  9.2029021708210498e-06  2.6515538722589636e-05  3.9927455499030257e-05  3.0552170477060557e-05  7.2767340210018734e-06  3.0978664337014213e-05  2.6515029907584479e-05  2.8671164271635689e-0