<?xml version="1.0"?>
<VTKFile type="UnstructuredGrid"  version="0.1"  >
<UnstructuredGrid>
<Piece  NumberOfPoints="12250" NumberOfCells="23858">
<Points>
<DataArray  type="Float64"  NumberOfComponents="3"  format="ascii">0 1 0  0 0 0  0.25 0 0  0.25 1 0  0.25 0.5 0  0 0.5 0  0.25 0.25 0  0 0.25 0  0 0.75 0  0.25 0.75 0  0.25 0.125 0  0 0.125 0  0.125 0 0  0.25 0.625 0  0 0.625 0  0.25 0.875 0  0.125 1 0  0 0.875 0  0 0.375 0  0.25 0.375 0  0.125 0.3125 0  0.125 0.5625 0  0.125 0.8125 0  0.125 0.125 0  0.109375 0.4375 0  0.109375 0.6875 0  0.09375 0.21875 0  0.15625 0.90625 0  0.25 0.0625 0  0.1875 0 0  0.0625 0 0  0 0.0625 0  0.0703125 0.9296875 0  0.25 0.1875 0  0.175 0.21875 0  0.1686580882352941 0.6314338235294118 0  0.25 0.5625 0  0.1686580882352941 0.3814338235294118 0  0.25 0.3125 0  0.1846093920839711 0.457675742811065 0  0.1846093920839711 0.7076757428110649 0  0.06963315217391304 0.8580163043478261 0  0.07291666666666667 0.07291666666666667 0  0.15625 0.0625 0  0.1875 0.84375 0  0.0625 0.28125 0  0.1875 0.53125 0  0.07552083333333334 0.7552083333333334 0  0.07552083333333334 0.5052083333333334 0  0 0.5625 0  0.07552083333333333 0.3697916666666667 0  0.07552083333333333 0.6197916666666666 0  0.1824174313243159 0.7757901373513681 0  0.0625 0.15625 0  0.25 0.9375 0  0.1875 1 0  0 0.8125 0  0 0.4375 0  0 0.6875 0  0 0.3125 0  0.25 0.6875 0  0.1875 0.285625 0  0.1875 0.151875 0  0 0.9375 0  0.0625 1 0  0.25 0.4375 0  0.25 0.8125 0  0 0.1875 0  0.1349233842818192 0.4925919004742429 0  0.1335152562773358 0.7418878364720013 0  0.0594917385057471 0.5625 0  0.203125 0.09375 0  0.0546875 0.4225260416666667 0  0.0546875 0.6725260416666666 0  0.2019136658660413 0.338216765427811 0  0.1995020000924898 0.5853709998150204 0  0.134375 0.2572916666666667 0  0.134375 0.1802083333333333 0  0.0542280474742976 0.8055614981858166 0  0.1221934647393398 0.8655188450868867 0  0.04166666666666666 0.21875 0  0.15625 0.9583333333333334 0  0.203125 0.890625 0  0.206713569888 0.4132614932290299 0  0.2115463505317381 0.65625 0  0.2012310606060606 0.9393939393939394 0  0.201171875 0.0458984375 0  0.03999561774661511 0.7201937510074146 0  0.0399956177466151 0.4701937510074146 0  0.035784841954023 0.34375 0  0.120327818627451 0.6397058823529411 0  0.120327818627451 0.3897058823529412 0  0.109375 0.9557291666666666 0  0.04564950980392158 0.1118259803921569 0  0.1118259803921569 0.04564950980392157 0  0.08025380291005291 0.3238673941798942 0  0.1112651209677419 0.9105762768817204 0  0.03211805555555555 0.90625 0  0.03828125 0.96171875 0  0.04036458333333334 0.04036458333333334 0  0.03620912949997044 0.5250978305837619 0  0 0.59375 0  0.162109375 0.1044921875 0  0.03118139907916267 0.8408194304321051 0  0.1571963533457454 0.590400949253577 0  0.1587578894014007 0.3394119764183286 0  0.1506969975490196 0.4218175551470588 0  0.1506969975490195 0.6718175551470588 0  0.2070906355574324 0.2473574746621622 0  0.2070906355574324 0.1901425253378378 0  0.08465650753054846 0.1224380150610969 0  0.1114330859658678 0.08648358070079884 0  0.04054746717714226 0.5986883868529541 0  0.25 0.15625 0  0.25 0.28125 0  0.25 0.71875 0  0.2084391486333693 0.742535064766066 0  0.2077428895139916 0.4936107790279832 0  0.25 0.96875 0  0.03666712336686759 0.7684569195137533 0  0.1109703176434807 0.3503952932678546 0  0.1109703176434807 0.6003952932678546 0  0.1323450854700855 0.21875 0  0.25 0.78125 0  0.2086853046321041 0.8079956092642081 0  0.08000310162272527 0.465131759144696 0  0.08000310162272528 0.715131759144696 0  0.1018832642575987 0.1578918738938707 0  0.09479166666666666 0.2583333333333333 0  0.03867928291393143 0.3857193939186725 0  0.09132584216562684 0.7915703900993829 0  0.09224586925287355 0.5407758212513062 0  0.2116835102241899 0.3752677467682454 0  0.0414061843625662 0.6367966883181331 0  0.25 0.21875 0  0.08681832107843138 0.4047372855392157 0  0.08681832107843135 0.6547372855392156 0  0.1712610500122523 0.4982534075100398 0  0.1479279021104813 0.5302308042209626 0  0.1402758174771396 0.4566398871709348 0  0.1401770623234474 0.7063796751786664 0  0.2135607759365587 0.6194448537498545 0  0.07848715477520853 0.8937711976365836 0  0.09934508737030834 0.8377256696305275 0  0.07675624887614536 0.0340696230396066 0  0.03406962303960659 0.07675624887614535 0  0.1440082713785475 0.7789727266050902 0  0.1660139782670602 0.8111869039237365 0  0.07431640624999999 0.96572265625 0  0.25 0.46875 0  0.1698567708333333 0.03024088541666667 0  0.171875 0.875 0  0.03645833333333333 0.2552083333333333 0  0.08098262222381999 0.18607118888809 0  0.02997236128493951 0.143180277430121 0  0.25 0.84375 0  0.2154679739181572 0.5534390521636856 0  0.03645833333333334 0.1822916666666667 0  0.03632264025522072 0.3070202805104414 0  0.21875 1 0  0.1513741686550626 0.8442167313996213 0  0.2168133977813582 0.4459955487717956 0  0.2190131322531496 0.703125 0  0.1727093113888277 0.7413852578608228 0  0.1701041666666667 0.2542708333333333 0  0.1517708333333333 0.1488541666666667 0  0.2142163753799392 0.1278941869300912 0  0.1587267574490621 0.3048224010443303 0  0.2156942356037362 0.3061689288285205 0  0.1725364379972955 0.1836837968219244 0  0 0.28125 0  0.25 0.59375 0  0.09623775023237939 0.2930336745498909 0  0.21875 0 0  0.25 0.03125 0  0.1670095396165001 0.5580904353245775 0  0.21875 0.859375 0  0.25 0.90625 0  0.06770833333333333 0.2392406798245614 0  0.1360540015737478 0.9322916666666666 0  0 0.65625 0  0.2159715577099652 0.7752374751740043 0  0.03967280310556515 0.8734198626945593 0  0.1077910012998816 0.762797795345007 0  0 0.40625 0  0.1171150579179289 0.5198108382041321 0  0.09070664895503529 0.5740093301963526 0  0.25 0.53125 0  0.1411005024478043 0.365749143953847 0  0.203125 0.9716815370501894 0  0.1837945203686314 0.6744812093095998 0  0.2183170921236503 0.1602468982335675 0  0 0.15625 0  0 0.09375 0  0.09375 0 0  0 0.53125 0  0.03125 0 0  0 0.03125 0  0 0.96875 0  0.03125 1 0  0 0.84375 0  0 0.90625 0  0 0.34375 0  0 0.46875 0  0 0.71875 0  0.25 0.65625 0  0.25 0.40625 0  0.15625 1 0  0 0.21875 0  0.25 0.34375 0  0.25 0.09375 0  0 0.78125 0  0.09375 1 0  0.15625 0 0  0.1382501640128451 0.6146706181423367 0  0.1029032040920708 0.4879819075298724 0  0.1112825458828796 0.718954367531518 0  0.2169638964623854 0.5228330254530568 0  0.1405591976966633 0.03688248058223706 0  0.02974586925287355 0.5550688899717633 0  0.2160338230385579 0.2760842074590348 0  0.02581632758445363 0.7963003271249862 0  0.224971958664313 0.921875 0  0.06400137079623429 0.5337450614030229 0  0.2037965081545127 0.21875 0  0.1853048017546082 0.1225569867710261 0  0.02797756823289423 0.4122583915708087 0  0.03201311651072376 0.4416354471567994 0  0.02802337245342894 0.662104489389812 0  0.03186754112015969 0.6915905787012612 0  0.2261855508973228 0.953125 0  0.08036684492372444 0.6860917176336441 0  0.08036684492372444 0.4360917176336441 0  0.1802741037799466 0.4278105955407592 0  0.1778428819444444 0.08089192708333333 0  0.2205285078642384 0.06907401179635761 0  0.1088722606056869 0.1940083737915799 0  0.1367254622493273 0.2860909589983134 0  0.06842073158759261 0.5920268866576984 0  0.184988977893691 0.9143419336810731 0  0.0418402777777778 0.9332465277777777 0  0.1871006213226104 0.6104250062100378 0  0.07985644640444792 0.8173374306235633 0  0.04732923247576441 0.4982821258888622 0  0.06611853992436414 0.780911006716439 0  0.2273935668277038 0.828125 0  0.1858696187385389 0.3143428712429033 0  0.1140892094017094 0.2390357905982906 0  0.1877922691669536 0.3617539661943096 0  0.05758674846768909 0.8333647569007363 0  0.1352608290824233 0.09973815947057559 0  0.1517706243282904 0.2004488161476693 0  0.1449695316901515 0.8810785158450758 0  0.09462378205504757 0.8708015690781575 0  0.227445339911385 0.578125 0  0.05745737992792876 0.4499181399758709 0  0.05780649493506441 0.7003314350163611 0  0.1187818739346447 0.7868226346316679 0  0.1745466635354981 0.9389032027907473 0  0.1256305258840564 0.838799819642297 0  0.06770833333333333 0.2124471236358035 0  0.02083333333333334 0.203125 0  0.140625 0.9791666666666667 0  0.1766821659552516 0.975561292200228 0  0.1620783318872163 0.4727483267075381 0  0.1536725427350427 0.2339082512469609 0  0.1617771474337578 0.278952823831228 0  0.02741604996872549 0.281090803289549 0  0.06183906994143391 0.3975310989925237 0  0.2268982540772563 0.2305832481508689 0  0.2294261974844445 0.203125 0  0.02083333333333332 0.234375 0  0.2223182091346154 0.02768179086538462 0  0.09616947414406221 0.7398115542262675 0  0.1053409896466572 0.4626386355124552 0  0.08648552069711524 0.09585218346816277 0  0.2272083926866681 0.3301067571674309 0  0.1294244353979274 0.06623776300617727 0  0.1263039818717184 0.1504857241294106 0  0.1149927180695202 0.2733691199751007 0  0.06199131875595188 0.7334062158692485 0  0.02625450755792898 0.7434924481572176 0  0.01945983991027112 0.484375 0  0.2275111354177403 0.3554598004473978 0  0.1921314999800934 0.3920320902063825 0  0.2289470153175877 0.4243266814421967 0  0.1870247299647788 0.6491605463078544 0  0.230773175265869 0.640625 0  0.2257840012722039 0.6780142623324342 0  0.2307273932539546 0.109375 0  0.2269693349086677 0.8972169952739968 0  0.1953125 0.8671875 0  0.162762385654881 0.6943720653954724 0  0.161588388430844 0.4440475151025772 0  0.2309500035219089 0.390625 0  0.2299311249500424 0.7955318348720017 0  0.02413306936009103 0.09948394181876646 0  0.09948394181876646 0.02413306936009104 0  0.1330536118107118 0.3370263238470877 0  0.1248085171568627 0.6658847783905228 0  0.1248085171568627 0.4158847783905228 0  0.1449811166772675 0.6384219919056187 0  0.1453180229233392 0.3903903978433153 0  0.09683485463150776 0.3822000850447938 0  0.09683485463150776 0.6322000850447937 0  0.223427517855915 0.4719270744719414 0  0.06546557658678889 0.6423413858921275 0  0.02224001017440792 0.5800747442977685 0  0.05437297849869319 0.3256533714011888 0  0.06877150140910145 0.3458900515631618 0  0.05106406938652892 0.3637940165204562 0  0.191795031
[...]
<PointData  Scalars="f_8051"> 
<DataArray  type="Float64"  Name="f_8051"  format="ascii">3.5544218514863709e-06  4.3212710585948393e-06  9.9177732732865285e-06  6.7965713482572305e-07  1.0727116141437360e-05  6.9068230215433226e-06  1.0872786268784917e-05  1.0178170451836122e-05  1.0670840719519195e-05  7.5737061521201316e-06  5.0126050852536370e-06  2.0597894229405722e-06  5.7482824649997698e-05  9.4080400277265222e-06  6.0732723440126941e-06  1.4063636787978840e-06  7.9161338633995882e-05  9.9069804272991064e-06  9.6282545698857826e-06  1.2486874491292941e-05  6.9472476925857600e-05  6.7331322214093917e-05  5.2554770999847278e-05  6.2047216956002816e-05  7.4753188476301481e-05  7.7754289975443927e-05  5.7809383403415144e-05  3.6942274808843839e-05  3.5528571866333056e-06  6.9295667435462753e-05  3.8438623239030080e-05  2.1008235574871694e-07  2.3864109596837245e-05  4.0382358205192715e-06  2.6305187041844594e-05  5.6510006751719842e-05  6.1682809341156043e-06  5.7875279371391151e-05  6.1692743116517047e-06  2.0440955668315284e-05  2.3798854537510087e-05  5.0401764100879839e-05  4.2296665103458565e-05  5.1340337134012113e-05  5.2859173620168904e-05  2.6155997322216151e-05  2.0972091962435719e-05  4.4797868834440629e-05  4.8975981225866080e-05  8.4697568049537813e-06  1.9370698757048872e-05  4.8692452367981189e-05  2.9539297176572443e-05  2.0090263824594640e-05  8.7379871296193999e-06  3.3630558063659562e-05  8.4985006017090885e-06  1.2114014188639441e-05  9.4728988425584872e-06  4.8474974494928175e-06  1.2148628605702709e-05  3.9032102288558776e-05  5.4787735165184367e-05  5.2683206672543019e-06  5.6975232383240278e-05  1.1027080250604733e-05  3.9679236502214972e-06  4.4999778560138730e-06  6.1816545844841852e-05  8.0645097951358651e-05  2.2050529128849894e-05  2.0697475771880797e-05  4.2696096229241941e-05  2.4161054258681662e-05  3.2282903872672225e-05  2.8487167755051045e-05  6.9954593189045221e-05  5.6265782119979063e-05  1.5880945690625317e-05  6.3154783588213533e-05  2.2516431376814033e-05  5.8041415685718081e-05  2.4897799322941097e-05  3.1903065207777216e-05  4.5562130919929359e-05  4.2710160980811888e-05  2.5494029752615716e-05  2.2547319459423497e-05  3.3223581607843724e-05  3.7718581174283815e-05  8.6615200559690068e-05  5.4987901743578537e-05  4.3172563306788740e-05  2.0620740591406264e-05  4.1153943780804115e-05  5.4867734933928021e-05  5.4163149086206701e-05  3.4321533231243048e-05  1.4871416456399433e-05  1.2689397094613332e-05  2.3652864255565409e-05  8.1371261866962191e-06  3.0616908244957771e-05  4.1419212493627923e-05  4.4217114177995882e-05  5.6098051732432774e-05  4.6020051233750244e-05  3.9424724200325692e-05  5.5271427103202455e-05  1.6429355989060050e-05  3.8405224103362938e-05  8.6608030840476584e-05  3.2473533291204069e-05  7.8934238046332487e-06  3.3582967554211434e-06  8.8703978636956180e-07  4.0864000596649968e-05  4.1514259151799645e-05  9.2860775824113295e-06  9.3868989418525507e-06  3.3820225722810321e-05  5.0928714934069056e-05  4.0095419602156502e-05  7.9053718694736465e-06  1.8273425242610204e-05  5.7172179039015670e-05  3.0611783056504346e-05  3.5399511653662931e-05  6.9262937859772795e-05  1.0192073367460844e-05  3.8811359868323012e-05  4.2142993051998093e-05  2.9460644607314357e-05  1.2169627626509847e-05  8.5729957693795929e-06  3.0190996937333207e-05  4.4331915674569073e-05  6.8401526186436055e-05  4.6305534868141156e-05  3.7201386285064332e-05  7.0208618596787227e-05  4.4863970148109675e-05  4.5459583256050885e-05  3.6220038969626370e-05  2.1483356371644929e-05  5.2645453382487926e-05  6.2602797733485221e-05  4.8133174086187111e-05  2.8632290721483897e-05  1.1239508009807847e-05  4.6927218922424595e-05  5.5761125938649886e-05  3.0457747831157195e-05  4.5940091992153475e-05  1.0700287808655388e-05  1.8108052609105406e-06  1.3241819973359173e-05  3.1453406100042759e-05  2.4269653430924316e-05  1.6294977314007825e-05  8.6013327612197670e-05  1.0954472670040068e-05  1.0440949650479888e-05  3.6936335329411157e-05  4.6863543800877682e-05  4.6554536100534599e-05  1.4470958093800936e-05  4.7702893003582707e-05  1.7200894611903750e-05  4.1333836386358188e-05  8.8918288804129759e-06  1.0661248062479885e-05  4.4466004131008284e-05  3.7452842781946390e-05  8.8171566646258239e-06  3.5473944147820768e-05  3.6249788731580188e-05  2.9343692748162538e-06  3.4478325913860147e-05  6.8213574813904881e-05  3.5960757683974083e-06  2.3124471612193767e-05  3.6222609925011579e-05  6.4939498573494430e-05  6.4472142558168968e-06  6.7731402078013265e-05  3.2907891560969300e-05  1.0923152601809148e-05  5.5627559926698236e-05  2.9038965223132648e-05  2.2542168604528151e-05  3.4921225655033965e-05  7.4406910682019631e-06  1.0602773743258391e-05  3.6268826405025079e-05  8.6128989824017342e-06  9.7215484085221656e-06  4.8023060407608470e-06  2.1303671570429451e-06  4.7711083809937361e-05  3.9844371123955393e-06  8.6881229903546244e-06  9.1680772467848652e-06  1.1639374806098391e-05  1.1907283154451835e-05  1.7265363060920927e-06  4.3013820251959352e-07  6.6563537540843644e-05  9.0890420027752700e-06  4.1446436528615143e-06  9.4989009567043872e-07  1.1324897423251104e-05  6.6443759430955432e-05  9.4513463552610530e-05  8.3005531357244170e-05  8.6389404168082156e-05  5.0275171458009224e-05  1.2035364881873179e-05  6.5907374293564951e-05  1.3603780940663466e-05  2.0059431006925654e-05  1.4058120286829556e-05  1.1442366707873399e-05  5.5249103366130541e-05  1.9030707110702161e-05  2.2162525958555021e-05  4.2690947858984613e-05  4.2010238106591999e-05  2.4854233730602804e-05  4.3483228935801831e-05  2.3117688005557879e-05  4.4176812417938951e-05  4.6444766483330905e-05  2.5333549030322609e-05  4.6442728593688617e-05  1.6678801702233817e-05  6.2959167104982471e-05  8.9281513491835818e-05  2.9795765499799564e-05  2.3396224166490137e-05  1.6530810645436797e-05  5.8735412752852322e-05  2.5040973105177791e-05  2.3683337501959109e-05  3.1454433271859953e-05  2.6566579232857533e-05  2.8295567042285030e-05  5.5136298444792773e-05  3.8591139824031555e-05  2.3567858354115466e-05  4.7660521574781426e-05  3.3531102868579480e-05  4.5554075303368180e-05  7.5787685528103601e-05  3.4354509111928603e-05  6.9072844402835636e-05  4.9485137543424368e-05  4.7984820665459424e-05  3.4839350036338703e-05  5.0136416597690531e-05  4.0720532828937232e-05  2.9942816989533458e-05  8.1296057192582934e-05  4.2246758727690466e-05  3.7920853267976589e-05  4.1589138251919554e-05  7.4594239901572536e-05  1.1704955069579743e-05  2.1238306147979237e-05  2.9311901181639296e-05  1.0454815468347740e-05  1.3517367941302354e-05  2.8796227327699793e-05  3.7102263883296390e-05  6.8350022634361597e-05  6.5778397619993876e-05  3.0353144346425948e-05  7.3763926447031577e-05  6.6504796144011339e-05  7.1135873818612726e-05  2.0880899498237738e-05  9.8163305740517551e-06  1.5280393133852515e-05  1.4851557031911564e-05  5.7141853132365324e-05  2.2359497217297920e-05  3.9700703481644434e-05  1.9196804903472745e-05  1.2788721907881798e-05  1.0424119736792811e-05  1.4984621772393293e-05  4.9007759499194378e-05  3.2058473832808612e-05  2.6549922415858474e-05  1.9712640945200872e-05  9.3722957089811506e-06  1.6953013360084860e-05  2.9143449102003425e-05  5.3430519498421659e-05  6.1422917673283875e-05  5.9755404236910790e-05  5.4242756615091089e-05  6.5355322170732082e-05  2.7436431313289557e-05  5.7989268075350719e-05  1.1769519338882180e-05  2.5125407522975795e-05  1.1361395907348189e-05  5.1938235944178999e-05  2.4891158041618705e-05  1.2731549453444927e-05  1.9849645528913143e-05  1.3937387642342666e-05  5.2889467859448125e-05  3.5854560580758631e-05  4.5022896275221545e-05  3.2450174185604453e-05  4.1733825416610552e-05  1.5948173035994306e-05  3.7425552901231338e-05  4.2435633161443634e-05  1.5421268515556131e-05  3.9029609648541030e-05  1.5586523220360568e-05  6.6550277826039142e-06  1.1744182890959411e-05  6.6929157183757312e-05  5.4209937616965150e-05  5.0942108022231752e-05  6.9375224617216637e-05  3.9843407004046789e-05  3.9172980383821946e-05  7.7213283374532113e-05  2.3238395173493605e-05  6.0280772160324293e-05  3.1794362102089836e-05  1.3829276408183398e-05  7.0187233647348314e-06  2.7119293487949796e-05  2.4059062605616086e-05  1.8306909989151073e-05  8.3983569661821399e-06  4.2681071877151082e-05  3.2568659529441318e-05  1.5477569706314118e-05  3.0900808473829759e-05  8.8233002070049122e-06  7.2549993907503167e-06  6.4234355164745523e-05  3.0588201692885361e-05  3.6479374174196084e-05  1.9377489533010788e-05  1.5261379270919570e-05  2.1169540763968821e-05  3.9483689784456409e-05  2.2783243098854823e-05  1.1964225278461058e-05  1.8934128957991494e-05  2.7711214178082262e-05  3.4592743741810411e-05  1.5931478201253996e-05  7.3353323863174098e-06  7.2397938315231156e-05  9.3655989695555144e-06  3.8470919171868728e-05  2.1383467910724135e-05  5.3208819265677200e-05  5.4575125550294430e-05  4.4010031133769052e-05  5.1584376625796427e-05  3.7927780581143069e-05  5.3764193777103815e-05  1.6531245853467635e-05  4.6350387313994314e-05  6.0534177057650673e-05  5.5945944946182392e-05  4.1254193758734489e-05  3.3430305563507626e-05  3.4119239882093501e-05  2.1623131562008185e-05  4.3082489096685250e-05  4.7949390305229649e-05  3.9183639730864231e-05  3.8177656614425515e-05  2.6780001575400551e-05  3.4993695737810776e-05  5.5904078548380703e-05  3.6947187745022454e-05  2.1947895753390863e-05  2.6826654415092463e-05  3.3330324893075843e-05  6.0693584895211606e-05  6.0772758136664707e-05  3.4483169177626222e-05  1.1659685608677044e-05  9.4172955629286999e-06  2.7179908083887476e-05  3.9255918217955015e-05  2.2546253618814501e-05  2.7028962105143637e-05  3.3583019383397163e-05  5.9328243791649661e-05  4.8705187350506103e-05  3.0456438103112017e-05  2.2585432304038754e-06  2.1900928656376597e-05  2.2634982632975172e-05  4.4301009985621840e-06  3.2386617053407053e-05  2.6885515472332002e-05  2.3742339290854849e-05  1.2919057213301182e-05  6.5848451366552719e-05  1.6341411980691022e-05  5.1135488645367188e-05  3.4107259384320084e-05  3.0367812750283233e-06  1.1754325753819218e-05  7.6069146805196749e-06  8.2610291017795701e-05  3.4911907569433206e-05  5.6451086583269937e-05  1.7330374140483807e-05  7.2429987391756662e-05  1.7160622288260040e-05  6.3451474625876673e-05  2.5448030176163825e-05  2.8677527985457336e-05  3.7706800753181110e-05  3.9979559124126357e-05  6.0821085878151154e-05  6.2190763284693492e-05  6.6269854552324802e-05  3.3643390355854164e-05  5.1126719824150005e-05  2.9752007211435271e-06  5.5349042061217324e-05  7.1113271157447741e-05  6.8775453754653986e-05  3.4096658337933119e-05  6.7831229941884850e-05  4.1650107954463046e-05  7.4897331028975835e-05  5.3506750287712600e-05  4.6660354957936061e-05  6.5345012218300419e-05  6.6740666246564010e-05  2.0517898273252114e-05  3.8192480190954799e-05  5.8392625568795345e-05  6.7063842040965198e-05  4.3160199260099293e-05  7.1140517228418529e-05  2.9859608066781036e-05  4.8096287203348101e-05  2.6065908352953468e-05  6.2401991685804873e-05  5.1687774385083145e-05  4.0981306042667872e-05  3.3842557703834407e-05  5.9416639448883324e-05  4.7870213755548561e-05  5.3830190857747200e-05  3.0543801090986416e-05  1.8327890395219119e-05  4.5836256009320608e-05  3.8642175626001332e-05  2.3959090940924020e-05  6.8132746689478846e-06  3.0625229675957431e-05  7.1697074737091839e-06  5.2341043706979997e-05  4.0131694236236301e-05  5.0716788931439058e-05  6.2226704311921634e-05  2.5291592262722517e-05  2.0101550451446749e-05  2.4121254146260004e-05  3.8197998588102162e-05  1.6750990655816837e-05  3.2899277568590059e-05  3.4161256792636058e-05  2.3338549582380167e-05  5.4985539199488696e-06  1.7531589797450901e-05  1.9455564354212294e-05  5.4411704955669733e-06  3.0741802017644303e-05  4.7299397645036882e-05  1.8947890594094572e-05  3.7956824235650950e-05  9.6097592358425313e-06  3.2254958571853051e-05  3.0817095549322638e-05  2.4563554220661228e-05  3.7195652507243562e-05  6.3707972065731936e-05  5.4007390151231810e-05  5.6069703003447442e-05  7.1646602137170960e-05  5.1744619172171208e-05  4.2236417348316923e-05  1.5561557388451924e-05  3.6496723374251935e-05  2.7959438230651469e-05  3.4179806066659098e-05  2.2091947287852102e-05  4.4973489407838519e-05  1.9360648553782938e-05  6.7007070087182915e-05  3.2778344194676013e-05  2.9755546796604996e-05  2.1575515016572503e-05  3.0812890824834684e-05  3.1111990973202593e-05  3.5355203951222423e-05  5.8778137688421136e-05  7.1880836012861216e-05  5.5418213575704238e-05  5.5297121492651005e-05  4.6805014053428272e-05  7.9459468690474072e-05  6.0363054305778848e-07  4.7906536516746766e-05  1.3504952169569849e-05  3.4461644398020391e-05  6.4321037552021276e-05  6.8551415906599052e-05  1.5335152882271307e-05  3.9096668063626940e-05  1.6099288754522066e-05  5.4174249764454426e-05  1.5354637316718756e-05  6.9354484965037257e-06  2.0812508116312809e-05  4.1530260158911697e-05  6.8692876776178238e-06  7.4646911113942257e-05  1.3168178648727913e-05  2.9188733056357121e-05  2.4301258206147581e-05  7.6593161838607528e-05  2.7562672784972029e-05  4.8010440494787919e-05  1.0810826708268835e-05  7.2719106596278265e-05  1.0589308142376115e-05  4.2527493350477259e-05  7.0924889436068051e-05  3.3915072879162784e-05  4.7331790315837877e-05  2.7275240201276338e-05  5.9989496225026421e-06  3.3149702592234531e-05  4.7520787382670009e-05  2.0592527277146850e-05  2.0828258329956439e-06  2.9602952382880146e-05  4.1151623065493784e-05  9.2273834999540556e-05  5.7680052210742392e-05  3.0489723563296178e-05  2.1046762706512274e-05  1.5060650627719969e-05  8.8615638633010561e-05  1.9788851927368770e-05  1.6559229028085181e-05  2.6998674734476978e-05  6.3870929816639262e-05  7.4556923678429261e-06  2.6203477150316728e-05  1.7081489704413255e-05  5.4139569425830630e-05  6.4047615811193182e-05  6.6694946155281980e-05  5.0710154651342196e-05  3.2309352274775565e-05  2.1721923857129410e-05  5.9060737494358890e-05  4.0860276111865500e-05  1.6426389408247128e-05  7.2990363514318303e-06  4.3246801150501814e-05  2.0830016376023295e-05  6.5526131498200969e-05  2.9406538832364320e-05  2.7482138936845571e-05  5.9139894320450843e-05  7.6337321071721094e-06  2.7692120487989898e-05  2.1023539804282399e-08  1.8946220296088827e-05  4.5508111722088109e-05  1.3460922412143939e-05  6.3098164905626424e-05  2.5173928658237245e-05  2.0574436533939391e-05  2.6304763778647486e-05  2.1681285243137610e-05  2.6328212065199232e-05  1.2589282212338784e-05  8.3062391559969722e-05  2.9034832656218145e-07  3.0796378164533157e-05  2.8369014769723024e-05  4.2911527947285854e-05  2.1587311568691760e-05  4.2078537336872079e-05  7.3420262140936469e-06  1.9998601731549510e-05  2.7128132223993448e-05  2.9700643136783555e-05  4.5640113867815304e-07  4.0819674780494335e-05  2.7256337063634661e-05  2.5075180102611264e-05  5.6323556073549480e-05  4.8009221445284833e-05  2.9047246051252942e-05  2.8227342742521233e-05  3.8277155790096928e-05  6.0296678821011114e-05  6.0009558186554481e-05  4.1073868267453891e-05  3.5678574860644058e-05  1.6854483622397786e-05  5.3810988843249133e-05  7.3134607646394771e-05  8.0357085377691736e-06  2.2680141732579306e-05  1.4113323315563055e-05  4.6879388576951424e-06  1.9107326082336217e-06  4.2280330492090172e-05  7.5279626018041180e-06  5.3025503514159242e-05  1.0743305008072905e-05  2.8451216134522832e-05  3.4064596450044151e-05  3.4311329738734856e-05  2.0167811036412619e-05  3.0690861748005663e-05  1.4180048321337698e-05  5.6698238729821776e-06  4.7726963690438569e-05  1.2452921748489080e-05  5.1538297583288415e-05  3.5402328274657561e-06  1.3802961167707832e-05  1.0793128510161232e-05  3.8339906996223307e-06  6.8583595306575550e-05  2.3174848993307248e-05  5.4333143385418911e-05  4.9023106760125989e-05  3.6657965005159940e-05  4.8172846368410319e-05  3.8294777273181985e-05  2.6001494831076752e-06  6.2455612723233205e-05  7.6953702318119670e-05  5.5039688985639658e-05  1.6922707721802666e-05  2.3253677865146270e-05  4.5598741033407264e-05  4.2369572028870005e-05  3.6967346434628557e-05  1.8645333254233547e-05  3.6681915616760562e-05  4.8939870213493550e-05  2.8523382188472677e-05  5.0472180725993687e-05  6.2517135070672391e-05  6.8686251464738707e-05  5.8457660472987106e-05  6.3273825567286478e-05  2.5851976279181328e-05  2.7373850786621235e-05  7.1434296533323994e-06  3.5430146375266560e-05  1.0174020769723990e-05  3.4296920964944814e-06  5.5308936944089620e-06  6.7836376549357107e-06  1.0302410132861357e-05  1.8599910492714856e-05  1.9195066754913212e-06  2.3535381626584323e-06  2.2768798485862691e-06  2.0055761393433654e-06  1.1440112086354433e-05  7.2415419909275512e-06  7.4174958024338488e-05  3.4200640599971872e-06  9.2266250691597632e-06  3.0920535340387456e-06  1.0972413117554701e-05  6.0153604890877223e-06  9.6303568628124441e-06  3.5729450568047331e-06  1.1271151144657094e-05  1.0338539208954751e-06  4.4036942159010107e-06  7.8056183416093832e-06  1.1999222143334125e-05  1.9709888605594469e-05  1.0250165256133466e-05  9.7754505828317308e-06  5.8456926445858484e-06  9.6120992359507998e-05  1.3215201611685629e-06  5.5366502308412477e-06  5.6268279340422612e-08  2.9270267237041306e-06  1.1494203602308833e-05  7.2138657316930186e-06  1.2020055157847484e-05  6.3840115411328836e-08  3.3784939375660077e-05  3.9888808707224107e-05  5.7567293869041280e-06  6.2929887776456861e-05  5.3282973281599646e-06  6.4953422786662453e-06  6.4579236798627276e-05  9.3827118728877615e-06  1.2182278282274775e-05  4.9925407979958255e-05  2.2217732396618044e-05  1.0187502706404555e-05  2.2087345270431397e-05  2.2357284223908413e-05  2.0221157889918115e-05  5.2627016784103170e-05  4.2909658167050075e-05  6.6864627122600122e-05  1.9457708114852826e-05  1.8678980062007762e-05  1.4953313045335926e-05  2.2229959949913840e-05  5.7645260994015023e-05  6.1879042053615779e-05  7.6121110276928104e-05  5.6158575566586532e-05  9.7421783608020063e-06  5.5025183451018383e-05  4.6418760671470448e-05  1.2442572258061984e-05  6.3863985994318468e-05  1.1424444788750469e-05  2.1277336752089328e-05  3.7181465918895582e-05  2.3622146125550742e-05  2.9612520169242559e-05  1.6444266659538032e-05  6.2119052908497793e-05  1.8633920208463007e-05  2.7163512058591994e-05  2.0206426230998998e-05  3.0250505027967779e-05  1.9277459415055276e-05  2.9125435478953587e-05  3.3809323784167373e-05  1.6994099778521112e-05  3.1512457811720899e-05  2.2805665825852877e-05  2.0690687520918394e-05  1.5040986201428159e-05  4.1524800148193882e-05  3.6509021060260936e-05  3.1123265697424132e-05  1.5861748105624916e-05  2.7938527926382049e-05  3.9442364900898485e-05  5.2802310813942048e-05  6.9773590672255517e-05  6.9864991274673689e-06  6.7346201622823352e-05  4.1481640794398037e-05  1.4681343993640317e-05  3.4407687659206343e-05  4.2623853123682255e-05  5.1913000920164751e-05  2.8308389055856769e-05  1.4950289920429943e-05  2.1470019217625757e-05  2.7794752825606411e-05  2.9295460980033944e-05  7.6292954875827477e-05  4.4857055398011679e-05  2.6478243398449185e-05  3.3566399396259260e-05  3.4780793650547817e-05  1.8709081402552030e-05  1.6222573378724584e-05  4.1324258082094791e-05  6.4064431726124768e-05  4.3206357380382990e-05  1.8001089068645603e-05  2.9337695507380320e-05  3.5294199466217562e-05  8.7177977665509394e-06  1.5429180858952086e-05  4.6001192145041132e-05  3.6031451099521230e-05  1.9015859126444712e-05  3.8898854213680916e-05  7.0444329365968125e-05  1.1014176287937637e-05  3.8768235907074507e-05  5.3575819243179007e-05  3.9549614302088531e-05  3.6686087685507253e-05  3.9773168211265609e-05  3.2170655846714047e-05  6.5876032380802837e-05  7.4657247613907975e-05  6.7265191832608894e-05  4.1302954371083808e-05  4.6208439114863065e-05  2.0958625859069249e-05  3.5052932952894812e-05  2.5371886777912879e-05  6.6755842462686886e-05  4.9628379700347546e-05  5.5346414319070549e-05  2.4944558314815431e-05  2.8717344231667730e-05  3.8364086115068961e-05  1.9677176357410