<?xml version="1.0"?>
<VTKFile type="UnstructuredGrid"  version="0.1"  >
<UnstructuredGrid>
<Piece  NumberOfPoints="12250" NumberOfCells="23858">
<Points>
<DataArray  type="Float64"  NumberOfComponents="3"  format="ascii">0 1 0  0 0 0  0.25 0 0  0.25 1 0  0.25 0.5 0  0 0.5 0  0.25 0.25 0  0 0.25 0  0 0.75 0  0.25 0.75 0  0.25 0.125 0  0 0.125 0  0.125 0 0  0.25 0.625 0  0 0.625 0  0.25 0.875 0  0.125 1 0  0 0.875 0  0 0.375 0  0.25 0.375 0  0.125 0.3125 0  0.125 0.5625 0  0.125 0.8125 0  0.125 0.125 0  0.109375 0.4375 0  0.109375 0.6875 0  0.09375 0.21875 0  0.15625 0.90625 0  0.25 0.0625 0  0.1875 0 0  0.0625 0 0  0 0.0625 0  0.0703125 0.9296875 0  0.25 0.1875 0  0.175 0.21875 0  0.1686580882352941 0.6314338235294118 0  0.25 0.5625 0  0.1686580882352941 0.3814338235294118 0  0.25 0.3125 0  0.1846093920839711 0.457675742811065 0  0.1846093920839711 0.7076757428110649 0  0.06963315217391304 0.8580163043478261 0  0.07291666666666667 0.07291666666666667 0  0.15625 0.0625 0  0.1875 0.84375 0  0.0625 0.28125 0  0.1875 0.53125 0  0.07552083333333334 0.7552083333333334 0  0.07552083333333334 0.5052083333333334 0  0 0.5625 0  0.07552083333333333 0.3697916666666667 0  0.07552083333333333 0.6197916666666666 0  0.1824174313243159 0.7757901373513681 0  0.0625 0.15625 0  0.25 0.9375 0  0.1875 1 0  0 0.8125 0  0 0.4375 0  0 0.6875 0  0 0.3125 0  0.25 0.6875 0  0.1875 0.285625 0  0.1875 0.151875 0  0 0.9375 0  0.0625 1 0  0.25 0.4375 0  0.25 0.8125 0  0 0.1875 0  0.1349233842818192 0.4925919004742429 0  0.1335152562773358 0.7418878364720013 0  0.0594917385057471 0.5625 0  0.203125 0.09375 0  0.0546875 0.4225260416666667 0  0.0546875 0.6725260416666666 0  0.2019136658660413 0.338216765427811 0  0.1995020000924898 0.5853709998150204 0  0.134375 0.2572916666666667 0  0.134375 0.1802083333333333 0  0.0542280474742976 0.8055614981858166 0  0.1221934647393398 0.8655188450868867 0  0.04166666666666666 0.21875 0  0.15625 0.9583333333333334 0  0.203125 0.890625 0  0.206713569888 0.4132614932290299 0  0.2115463505317381 0.65625 0  0.2012310606060606 0.9393939393939394 0  0.201171875 0.0458984375 0  0.03999561774661511 0.7201937510074146 0  0.0399956177466151 0.4701937510074146 0  0.035784841954023 0.34375 0  0.120327818627451 0.6397058823529411 0  0.120327818627451 0.3897058823529412 0  0.109375 0.9557291666666666 0  0.04564950980392158 0.1118259803921569 0  0.1118259803921569 0.04564950980392157 0  0.08025380291005291 0.3238673941798942 0  0.1112651209677419 0.9105762768817204 0  0.03211805555555555 0.90625 0  0.03828125 0.96171875 0  0.04036458333333334 0.04036458333333334 0  0.03620912949997044 0.5250978305837619 0  0 0.59375 0  0.162109375 0.1044921875 0  0.03118139907916267 0.8408194304321051 0  0.1571963533457454 0.590400949253577 0  0.1587578894014007 0.3394119764183286 0  0.1506969975490196 0.4218175551470588 0  0.1506969975490195 0.6718175551470588 0  0.2070906355574324 0.2473574746621622 0  0.2070906355574324 0.1901425253378378 0  0.08465650753054846 0.1224380150610969 0  0.1114330859658678 0.08648358070079884 0  0.04054746717714226 0.5986883868529541 0  0.25 0.15625 0  0.25 0.28125 0  0.25 0.71875 0  0.2084391486333693 0.742535064766066 0  0.2077428895139916 0.4936107790279832 0  0.25 0.96875 0  0.03666712336686759 0.7684569195137533 0  0.1109703176434807 0.3503952932678546 0  0.1109703176434807 0.6003952932678546 0  0.1323450854700855 0.21875 0  0.25 0.78125 0  0.2086853046321041 0.8079956092642081 0  0.08000310162272527 0.465131759144696 0  0.08000310162272528 0.715131759144696 0  0.1018832642575987 0.1578918738938707 0  0.09479166666666666 0.2583333333333333 0  0.03867928291393143 0.3857193939186725 0  0.09132584216562684 0.7915703900993829 0  0.09224586925287355 0.5407758212513062 0  0.2116835102241899 0.3752677467682454 0  0.0414061843625662 0.6367966883181331 0  0.25 0.21875 0  0.08681832107843138 0.4047372855392157 0  0.08681832107843135 0.6547372855392156 0  0.1712610500122523 0.4982534075100398 0  0.1479279021104813 0.5302308042209626 0  0.1402758174771396 0.4566398871709348 0  0.1401770623234474 0.7063796751786664 0  0.2135607759365587 0.6194448537498545 0  0.07848715477520853 0.8937711976365836 0  0.09934508737030834 0.8377256696305275 0  0.07675624887614536 0.0340696230396066 0  0.03406962303960659 0.07675624887614535 0  0.1440082713785475 0.7789727266050902 0  0.1660139782670602 0.8111869039237365 0  0.07431640624999999 0.96572265625 0  0.25 0.46875 0  0.1698567708333333 0.03024088541666667 0  0.171875 0.875 0  0.03645833333333333 0.2552083333333333 0  0.08098262222381999 0.18607118888809 0  0.02997236128493951 0.143180277430121 0  0.25 0.84375 0  0.2154679739181572 0.5534390521636856 0  0.03645833333333334 0.1822916666666667 0  0.03632264025522072 0.3070202805104414 0  0.21875 1 0  0.1513741686550626 0.8442167313996213 0  0.2168133977813582 0.4459955487717956 0  0.2190131322531496 0.703125 0  0.1727093113888277 0.7413852578608228 0  0.1701041666666667 0.2542708333333333 0  0.1517708333333333 0.1488541666666667 0  0.2142163753799392 0.1278941869300912 0  0.1587267574490621 0.3048224010443303 0  0.2156942356037362 0.3061689288285205 0  0.1725364379972955 0.1836837968219244 0  0 0.28125 0  0.25 0.59375 0  0.09623775023237939 0.2930336745498909 0  0.21875 0 0  0.25 0.03125 0  0.1670095396165001 0.5580904353245775 0  0.21875 0.859375 0  0.25 0.90625 0  0.06770833333333333 0.2392406798245614 0  0.1360540015737478 0.9322916666666666 0  0 0.65625 0  0.2159715577099652 0.7752374751740043 0  0.03967280310556515 0.8734198626945593 0  0.1077910012998816 0.762797795345007 0  0 0.40625 0  0.1171150579179289 0.5198108382041321 0  0.09070664895503529 0.5740093301963526 0  0.25 0.53125 0  0.1411005024478043 0.365749143953847 0  0.203125 0.9716815370501894 0  0.1837945203686314 0.6744812093095998 0  0.2183170921236503 0.1602468982335675 0  0 0.15625 0  0 0.09375 0  0.09375 0 0  0 0.53125 0  0.03125 0 0  0 0.03125 0  0 0.96875 0  0.03125 1 0  0 0.84375 0  0 0.90625 0  0 0.34375 0  0 0.46875 0  0 0.71875 0  0.25 0.65625 0  0.25 0.40625 0  0.15625 1 0  0 0.21875 0  0.25 0.34375 0  0.25 0.09375 0  0 0.78125 0  0.09375 1 0  0.15625 0 0  0.1382501640128451 0.6146706181423367 0  0.1029032040920708 0.4879819075298724 0  0.1112825458828796 0.718954367531518 0  0.2169638964623854 0.5228330254530568 0  0.1405591976966633 0.03688248058223706 0  0.02974586925287355 0.5550688899717633 0  0.2160338230385579 0.2760842074590348 0  0.02581632758445363 0.7963003271249862 0  0.224971958664313 0.921875 0  0.06400137079623429 0.5337450614030229 0  0.2037965081545127 0.21875 0  0.1853048017546082 0.1225569867710261 0  0.02797756823289423 0.4122583915708087 0  0.03201311651072376 0.4416354471567994 0  0.02802337245342894 0.662104489389812 0  0.03186754112015969 0.6915905787012612 0  0.2261855508973228 0.953125 0  0.08036684492372444 0.6860917176336441 0  0.08036684492372444 0.4360917176336441 0  0.1802741037799466 0.4278105955407592 0  0.1778428819444444 0.08089192708333333 0  0.2205285078642384 0.06907401179635761 0  0.1088722606056869 0.1940083737915799 0  0.1367254622493273 0.2860909589983134 0  0.06842073158759261 0.5920268866576984 0  0.184988977893691 0.9143419336810731 0  0.0418402777777778 0.9332465277777777 0  0.1871006213226104 0.6104250062100378 0  0.07985644640444792 0.8173374306235633 0  0.04732923247576441 0.4982821258888622 0  0.06611853992436414 0.780911006716439 0  0.2273935668277038 0.828125 0  0.1858696187385389 0.3143428712429033 0  0.1140892094017094 0.2390357905982906 0  0.1877922691669536 0.3617539661943096 0  0.05758674846768909 0.8333647569007363 0  0.1352608290824233 0.09973815947057559 0  0.1517706243282904 0.2004488161476693 0  0.1449695316901515 0.8810785158450758 0  0.09462378205504757 0.8708015690781575 0  0.227445339911385 0.578125 0  0.05745737992792876 0.4499181399758709 0  0.05780649493506441 0.7003314350163611 0  0.1187818739346447 0.7868226346316679 0  0.1745466635354981 0.9389032027907473 0  0.1256305258840564 0.838799819642297 0  0.06770833333333333 0.2124471236358035 0  0.02083333333333334 0.203125 0  0.140625 0.9791666666666667 0  0.1766821659552516 0.975561292200228 0  0.1620783318872163 0.4727483267075381 0  0.1536725427350427 0.2339082512469609 0  0.1617771474337578 0.278952823831228 0  0.02741604996872549 0.281090803289549 0  0.06183906994143391 0.3975310989925237 0  0.2268982540772563 0.2305832481508689 0  0.2294261974844445 0.203125 0  0.02083333333333332 0.234375 0  0.2223182091346154 0.02768179086538462 0  0.09616947414406221 0.7398115542262675 0  0.1053409896466572 0.4626386355124552 0  0.08648552069711524 0.09585218346816277 0  0.2272083926866681 0.3301067571674309 0  0.1294244353979274 0.06623776300617727 0  0.1263039818717184 0.1504857241294106 0  0.1149927180695202 0.2733691199751007 0  0.06199131875595188 0.7334062158692485 0  0.02625450755792898 0.7434924481572176 0  0.01945983991027112 0.484375 0  0.2275111354177403 0.3554598004473978 0  0.1921314999800934 0.3920320902063825 0  0.2289470153175877 0.4243266814421967 0  0.1870247299647788 0.6491605463078544 0  0.230773175265869 0.640625 0  0.2257840012722039 0.6780142623324342 0  0.2307273932539546 0.109375 0  0.2269693349086677 0.8972169952739968 0  0.1953125 0.8671875 0  0.162762385654881 0.6943720653954724 0  0.161588388430844 0.4440475151025772 0  0.2309500035219089 0.390625 0  0.2299311249500424 0.7955318348720017 0  0.02413306936009103 0.09948394181876646 0  0.09948394181876646 0.02413306936009104 0  0.1330536118107118 0.3370263238470877 0  0.1248085171568627 0.6658847783905228 0  0.1248085171568627 0.4158847783905228 0  0.1449811166772675 0.6384219919056187 0  0.1453180229233392 0.3903903978433153 0  0.09683485463150776 0.3822000850447938 0  0.09683485463150776 0.6322000850447937 0  0.223427517855915 0.4719270744719414 0  0.06546557658678889 0.6423413858921275 0  0.02224001017440792 0.5800747442977685 0  0.05437297849869319 0.3256533714011888 0  0.06877150140910145 0.3458900515631618 0  0.05106406938652892 0.3637940165204562 0  0.191795031
[...]
<PointData  Scalars="elv"> 
<DataArray  type="Float64"  Name="elv"  format="ascii">7.5450606991643869e-06  9.7538814527043121e-06  7.1543990743081729e-06  2.7527772175103829e-08  1.0991462032380024e-05  2.5653827365637069e-06  1.0751203502481228e-05  3.9144218278116082e-06  2.8388102143321741e-07  1.1400767836278323e-05  4.7846576930538678e-06  8.0854250642813581e-06  2.8664441720999026e-04  2.2516306949033644e-06  2.7718209247681496e-06  7.0008762022812590e-06  2.6254257914153079e-04  7.1446146840503905e-06  1.2145760303793039e-05  1.0753136283257088e-05  3.2582796487736425e-04  2.5548679489574246e-04  2.7426060552569390e-04  2.7161063323200360e-04  2.4737065846011668e-04  2.2608321158039285e-04  2.3105638842658700e-04  1.9983554530924057e-04  9.9544333685588527e-06  1.2859051351698982e-04  8.9875991090129605e-05  3.6627916886584832e-06  1.1519054320568788e-04  1.5413662468417703e-06  1.8055876236748101e-04  2.0478203069502482e-04  2.3206337373444965e-06  2.0812555628403444e-04  8.8767175868650097e-06  8.7736506565605233e-05  9.9398838267600312e-05  1.7824143765891645e-04  1.9607716169913446e-04  2.1958063220305500e-04  1.4075708814953293e-04  8.6088588671672368e-05  1.7008028851687296e-04  2.0012701989310480e-04  1.4575605157456217e-04  1.0332335001300543e-05  1.8926908099922826e-04  1.2033840351480767e-04  2.2248425742916176e-04  1.6996809573542707e-04  1.1743101058439465e-05  1.8412877468634582e-04  1.1353477603094533e-06  9.0131258686465131e-07  3.9153662150467895e-07  1.6863496530080181e-06  8.5157789319720243e-06  1.5127314957216818e-04  1.0065486846447154e-04  1.1920119405851951e-07  1.9078750693408912e-04  1.1261343774889831e-05  5.3909380680290057e-06  9.1987951038263836e-06  3.0050827801328237e-04  2.5315396507639125e-04  1.6794946211200741e-04  1.2334998102924517e-04  1.8192523444957921e-04  9.0530852390882814e-05  8.4229890960584779e-05  7.5922011373217901e-05  3.0467926036419296e-04  2.0369979719883340e-04  7.8604116122210882e-05  3.2303902539399112e-04  1.4594935115314176e-04  2.7302304300932424e-04  7.2339569325793933e-05  1.3734567040255978e-04  1.9114637743373414e-04  1.0552361109288915e-04  9.9612538109428999e-05  1.7293499558999968e-04  5.5818635659568744e-05  7.7878284895103835e-05  2.4360887439736945e-04  2.9427187395546993e-04  1.8293465746732689e-04  1.4116415567705175e-04  2.5281026440622490e-04  2.4939584855651815e-04  2.4353757067028010e-04  8.6681038283536977e-05  6.4654272582949913e-05  7.8881353118754566e-05  1.7080672724095576e-04  7.7203111096231342e-06  1.8511036536909709e-04  1.3405276882358160e-04  1.6897222142132890e-04  1.5621765662764763e-04  2.1834607677904234e-04  2.2955542618027246e-04  7.5582811420207469e-05  1.3672588257206792e-04  2.6640145875049840e-04  3.1468167175373156e-04  7.4431862389073109e-05  5.8684677253921029e-06  1.0425601395312845e-05  2.5071926058491692e-06  1.0015152729457123e-04  1.2077893563969188e-04  1.0511330866269000e-05  5.6772821623229852e-05  3.1121641567736325e-04  3.2097547395900999e-04  3.4161318115474263e-04  9.9078402792954260e-06  1.6268892668836691e-04  1.3455001998000844e-04  2.0186138734643581e-04  3.2308130954788008e-04  1.3462036252305859e-04  9.7169016824227156e-05  1.7053757165863613e-04  3.0916608456219279e-04  1.8272553620784612e-04  4.6181929196738959e-05  8.5858192428903063e-06  2.8374312415718473e-04  1.3464629914930709e-04  1.9517060841510000e-04  2.4535177557430372e-04  2.0436222162391530e-04  2.9752632376769462e-04  7.7835864606204654e-05  2.3600147493248142e-04  1.9402263892557352e-04  1.2257618637666356e-04  1.5106513040000173e-04  3.5191782972817027e-04  2.5350316578864288e-04  1.2299032245861367e-04  1.1802064550752189e-05  1.6358672904685207e-04  1.3085352382224586e-04  4.6889940503334925e-05  2.8240531629278293e-04  7.5503670900848669e-05  9.3537196012964397e-06  7.1835791028975808e-05  1.0597591662914840e-04  1.0341286617775819e-04  1.0658730508940423e-04  2.0116289346979561e-04  4.3548486432930398e-05  4.5851458638339118e-05  1.4484438855188051e-04  1.6536352564164346e-04  1.6494430950912841e-04  5.7481956632609134e-05  2.0815224193453482e-04  4.7715837699542389e-05  1.5389562977674310e-04  4.2288207140568127e-06  6.1024385337538637e-06  1.7195166480006707e-04  6.3104234103915721e-05  4.8022433200261631e-06  1.4587559681711608e-04  6.3459540455561696e-05  8.6708660162567668e-06  1.0815962058042775e-04  3.2339486880990625e-04  5.3571394114853861e-06  1.4812196714136873e-04  1.8393601743837691e-04  2.8880789436072608e-04  9.6124526181555751e-06  3.0805905726068254e-04  2.6530335883719275e-04  4.4296596627415601e-06  2.0683595235862932e-04  9.9441348072878326e-05  1.3774622204177999e-04  4.9648734957017686e-05  5.9390924527678169e-07  1.0187051218968183e-05  1.7043723069826443e-04  2.6143844806178444e-06  3.4892473533419030e-05  4.3634341801775672e-06  6.2478835637183404e-06  1.2785555795713453e-04  9.9022823554445124e-06  1.9174179460858575e-06  6.9290140815391066e-06  8.1183558982354726e-06  1.5022805041843364e-06  2.8010407152076590e-06  9.5018471487621685e-06  3.1655896843475105e-04  1.1303163298948580e-06  1.1151131127013164e-05  2.4502363993142681e-06  1.0910992693897912e-05  2.2264295537390057e-04  2.3992603297024769e-04  2.7473567901130477e-04  1.9736344799756823e-04  2.5482746008386272e-04  1.9399685162868209e-04  2.4382986755542028e-04  7.0028713863192342e-05  9.0903102180437485e-05  3.5832667715194156e-05  8.4129198620933293e-05  2.1719667821549493e-04  9.9295662108104580e-05  1.1325949018707400e-04  1.0095496398812074e-04  1.1191693438395666e-04  5.3493255421750886e-05  1.4628187649384512e-04  3.9792146825974719e-05  1.4593041126777052e-04  1.8660336948102900e-04  1.2425361038673359e-04  2.3687721442374829e-04  8.7982657490537138e-05  3.4075063797890111e-04  3.2710469182371257e-04  1.4526433880340307e-04  1.3483007059647269e-04  6.3265009232245934e-05  1.1803382573539839e-04  1.1984621793573202e-04  7.4441597983557434e-05  1.1875889529715876e-04  6.5767495110696632e-05  1.0352696737588801e-04  2.0375006487122961e-04  1.3618136965204658e-04  1.1771684858462791e-04  2.7645884980296150e-04  2.3395883136592170e-04  2.2218436620760065e-04  2.5143089168775361e-04  3.3096655211850944e-05  1.0637804860032105e-04  1.4275463481989650e-04  2.7240178389481161e-04  1.9847632533536423e-04  2.9493156444554647e-04  1.9448702831954565e-04  9.0610949266420164e-05  2.7251027941175394e-04  1.8778773104120001e-04  1.6710933461756350e-04  2.4514607743325877e-04  2.4815000955202198e-04  2.9752218235440623e-05  1.7439627293081155e-04  4.4366605920434820e-05  8.9948179364775365e-05  6.7750409477597453e-05  5.3625042716676607e-05  3.1056751940630446e-04  1.8774229033310952e-04  2.8979520067615589e-04  4.3476521517685396e-05  3.0945165823378196e-04  2.1224275545823814e-04  1.9735736119601179e-04  2.3273166584479392e-04  1.0555051903982562e-04  2.3022134116972466e-05  6.0998100887281779e-05  2.5551974963570226e-04  7.3148827671307913e-05  2.2762252974800216e-04  1.0754646580401895e-04  4.9146518053953184e-05  3.2370331440302006e-05  3.7739399585724371e-05  9.6538916097781092e-05  1.6896744609376169e-04  1.3145083550695943e-04  9.6450662877223449e-05  8.3882596495317760e-05  7.3564400559322489e-05  1.8942211790828350e-04  2.2737747634330653e-04  2.5227494557983197e-04  3.6227493582786029e-04  3.5412432159368998e-04  2.3931853576826962e-04  2.9280879292126281e-04  1.7736889741794523e-04  3.9594802280488043e-05  8.2220171336263545e-05  7.1388579566994780e-05  1.5737804655400586e-04  1.7762952098846692e-04  1.0786682272882552e-04  9.5421360628933840e-05  2.8318663758323620e-05  3.6600805504870292e-04  1.5662049170943313e-04  2.1099706062689777e-04  1.5370870385129678e-04  1.0697081836963093e-04  4.4200098413438820e-05  1.8362623705436834e-04  1.7150521143680512e-04  1.4558168024739516e-04  2.0710576628000130e-04  5.2754195916733876e-05  4.2057486209315729e-05  4.6348367347527631e-05  2.3127866044718540e-04  2.1298542056397157e-04  1.9283039740046048e-04  2.5417263644891087e-04  1.7120546798962374e-04  9.8827659148955965e-05  3.3411113441587302e-04  7.5973964149324546e-05  2.6398783764127484e-04  1.6511306683291872e-04  7.1461934247093084e-05  3.1565528581993774e-05  9.3574085774309322e-05  1.2996493699255867e-04  8.4607814687228294e-05  2.6651277146658948e-05  1.9982262109880897e-04  1.7680574778581001e-04  7.9550648509040518e-05  1.0131946621463590e-04  3.6548617642520946e-05  2.2619453527606100e-05  2.9465739637221590e-04  1.1403189036596942e-04  4.2420628845813825e-05  2.2531243626452015e-05  5.9264020303245488e-05  4.5430890017225071e-05  1.7557089255225777e-04  3.2866549761129443e-05  3.3652068765518930e-05  6.1415876526300754e-05  1.4552076474978518e-04  2.2992990057042954e-04  4.6494514519579170e-05  6.3673177050794353e-05  2.1764407185632836e-04  8.9556984557829315e-05  2.2162279772995874e-04  5.0954839910300849e-05  2.8694352172482578e-04  1.3584295804963019e-04  1.7060111625138999e-04  2.9411907914245211e-04  1.9371362603726958e-04  3.0440209670610618e-04  1.2924109495821920e-04  1.1725600037931945e-04  1.5086621333380311e-04  2.8147172004974784e-04  2.8923546401601148e-04  1.1363498912880321e-04  3.9699560844979434e-05  1.9682245138405398e-04  9.3959563879106859e-05  1.2396767736118692e-04  1.2341149206552830e-04  1.9347420743109369e-04  2.7997053599117819e-04  1.6586094928927440e-04  2.9658899588484012e-04  1.1440859749795795e-04  2.2475314797638143e-04  1.1108453575423729e-04  1.2320672465709624e-04  1.7818737520424564e-04  1.7380406031785640e-04  2.6340626498325148e-04  2.5025208542803413e-05  2.3476296139154045e-06  7.5011573975909774e-05  7.2838004715874470e-05  1.4065307736326705e-04  1.0604106282920839e-04  1.6854023864644639e-04  1.9414627120972476e-04  2.6119268349639218e-04  1.4325535515452543e-04  5.9982808341561153e-06  3.8388620003460992e-05  8.6708429920963532e-05  4.7286522333475636e-09  7.2717069284531415e-05  1.1556501771988148e-04  1.9894359744050592e-05  5.8252756535540239e-05  2.4112619784294969e-04  1.0286816698225241e-04  2.2514794045001279e-04  1.0632498763507388e-04  3.8694945276325999e-06  5.7686620384392407e-05  1.1307266174539157e-04  3.1196786866276847e-04  8.9653935406586773e-05  2.4932973318032473e-04  7.3491109388891884e-05  3.1723301398493641e-04  8.7984607587611222e-05  1.3243614752114373e-04  2.4379509833292781e-04  2.8842936438739210e-04  3.2219587473971729e-04  2.6328821581990056e-04  3.1863667816109289e-04  2.6364286993420710e-04  2.4905422603336798e-04  1.3035909094701837e-04  1.8644476398128399e-04  4.7296301894812542e-06  1.8279537292809750e-04  2.5928663311762935e-04  1.5633421846957096e-04  1.4022438400931243e-04  1.3075785912129286e-04  3.5010562883855016e-04  3.5824584958030838e-04  1.6602189464611525e-04  3.0217700906854490e-04  3.2829061410649804e-04  2.0581601202620026e-04  9.6764173897944463e-05  1.1621188913362064e-04  1.6256996914565188e-04  1.8749860025294953e-04  3.9537487391744496e-04  2.3272882159836196e-04  1.8141610591410095e-04  2.9544049685405047e-04  2.9614756965409367e-04  2.3828553670577908e-04  2.6790307739706239e-04  1.6084636630381435e-04  2.2813594366899594e-04  2.0373476701591160e-04  2.8794061862217132e-04  1.9130147247126313e-04  1.3139973447417940e-04  3.1058887176277842e-05  3.2717913418472326e-04  2.9486083570555075e-04  1.1444509312253226e-04  2.8316056908114964e-05  4.9982751246288353e-05  7.2594154798745245e-06  3.0860012491850221e-04  2.5166902785844129e-04  2.6130073865009319e-04  1.6413518704888689e-04  1.3417262398936945e-04  2.6928865188321620e-04  1.0989925035829840e-04  2.0042136487853732e-04  6.3444550722951642e-05  9.4513422756932496e-05  8.5603103372696620e-05  1.3607246959239532e-04  1.4147923001148547e-06  7.1300026361416764e-05  8.2327058868779263e-05  2.1063092220887884e-06  5.3595027092938893e-05  3.1966667750634798e-04  5.5784233198371434e-05  1.1096015388423475e-04  4.0884979735547706e-05  1.9980318644640112e-04  1.5889387335209687e-04  5.9212929951355615e-05  2.4897564134356367e-04  2.3898147172786433e-04  3.3956255434710762e-04  1.3368151088674257e-04  2.3232548602911498e-04  2.1513006254406789e-04  2.1610693512411433e-04  1.0063267867057703e-04  1.4706469680099901e-04  1.5995362720920957e-04  1.4543200813575701e-04  5.3415695551713735e-05  5.8111529978574535e-05  8.7648799749770259e-05  2.4585620107904206e-04  2.2876153280303716e-04  1.1790228058257928e-04  2.1982173142428275e-04  9.8572311317245438e-05  2.3770764754722849e-04  1.0156075069332861e-04  9.9127244908281644e-05  1.7847782543032261e-04  2.5815079888268842e-04  2.7749816313486455e-04  1.9222313535999133e-04  2.8849587265467324e-04  1.2445702902529063e-05  2.6639853436554112e-04  6.5464862740191742e-05  7.9754403398901179e-05  2.3729966670304046e-04  1.7764831509456782e-04  4.2854189715249370e-05  2.1773489757317702e-04  3.7158371590585253e-05  1.7437021633463711e-04  1.1728853900330295e-04  4.0992842976211841e-05  7.0509988708407557e-05  3.5593315735403611e-04  3.6627840769978257e-06  2.3440423408556507e-04  1.3155012655068928e-04  6.0988759864270138e-05  1.0707965966130449e-04  2.5074393294127290e-04  2.4556429166378208e-04  2.1361951427638302e-04  6.2002615069481709e-06  2.6053928998744541e-04  2.0248744019098072e-07  1.7739052192022834e-04  1.7855639828816221e-04  1.3368584920016055e-04  1.9253188688978437e-04  1.5446419326335071e-04  5.9014798754651249e-05  1.5633909189772264e-04  9.9457418127258288e-05  4.7836839150677149e-05  3.6761886732075145e-06  3.0284753916532929e-05  8.5079423162009844e-05  2.9388369462771802e-04  8.1119455361391803e-05  6.4349891290846591e-05  7.6187127235197185e-05  3.2355374255432483e-05  3.0324370855586006e-04  4.7741181437460998e-05  6.6187740442600796e-05  2.8424698783133723e-04  2.6409270711066760e-04  2.5114174211213916e-05  2.0480504072193373e-04  5.0747779654362142e-05  2.0625866628149180e-04  2.8871352209019021e-04  1.9978839383763127e-04  2.0822649693433325e-04  1.6617647168324287e-04  1.3403919693088368e-04  2.1820312456681564e-04  1.4261995132325669e-04  6.8228699736258449e-05  2.3978935464897202e-05  2.2931769746530005e-04  1.2231773990771600e-04  3.4999923749789113e-04  6.5288820057849307e-05  1.4424558855884997e-04  2.7580120053477596e-04  2.6410349888696435e-05  1.4498155245473856e-04  1.0013451095481087e-05  9.7141262045536187e-05  2.2524317265685325e-04  8.9166129343305902e-05  2.8521432397772729e-04  7.6087776246658469e-05  9.0219711250703893e-05  1.4446502501571780e-04  1.6283639041447755e-04  2.0889428150761292e-04  3.5657233503154272e-05  3.2587322357381112e-04  5.3464876677168624e-06  2.5966267638258679e-04  1.9638811409406455e-04  2.6505276068353948e-04  2.5222702977574911e-05  1.5828063735481238e-04  3.5395685448826566e-05  1.0684268260954287e-04  1.5573382592499817e-04  1.8284041165408918e-04  2.8878267773906649e-06  1.6755942397742761e-04  1.3508103368119504e-04  8.0300230996095692e-05  1.7789613935501855e-04  1.7781746421102916e-04  6.0790411912141724e-05  1.2918130146449857e-04  1.2265112432436641e-04  2.9141666978178376e-04  2.2896625462522581e-04  1.3145501590615665e-04  1.7418369919952142e-04  6.3800099807182747e-05  2.7347633522872237e-04  3.0004542961652950e-04  3.2353502941510209e-05  3.5533283342396881e-05  8.5864646025275311e-05  1.8313343243739420e-05  2.7271315644178564e-06  6.0144729023781242e-05  2.3695028076081196e-05  2.7695614906969487e-04  1.0739553938485080e-04  1.2861704290649087e-04  1.8402400138626960e-04  7.4278146994322540e-05  9.5851104424512319e-05  1.4632873088232313e-04  1.6941575298818799e-04  1.0846766374645327e-05  2.6897153442965744e-04  5.1836909441185467e-06  2.6627331568706251e-04  2.4118258219060401e-06  5.2316292394682012e-05  4.5841657962352500e-06  1.0095202419668994e-05  2.8865012743941947e-04  8.2394240271556229e-05  1.4541105752938476e-04  2.1799011882092659e-04  1.4116297679846339e-04  2.3673005405119550e-04  1.6465326751937513e-04  1.0768682618385505e-05  1.8415173942066583e-04  1.9585575727134179e-04  2.4273918716694951e-04  4.7673142920833882e-05  5.9572030165680085e-05  1.9129319563921719e-04  2.7658348564761279e-04  7.8458995609272447e-05  7.0625111024467434e-05  2.1731642307359575e-04  1.1724996420602008e-04  1.1626522773226898e-04  1.4540452320033814e-04  1.9517338483190539e-04  2.4429898164104151e-04  2.0198912300894731e-04  2.3561333219193915e-04  4.5652114429581122e-05  6.7600139062828286e-05  1.0140160391645650e-05  1.2871878644807989e-04  9.4692585374033111e-07  4.9923390630689582e-06  4.6480602564866876e-06  9.2946054648219398e-06  1.2497259311956638e-06  4.0894808399233993e-05  1.8077267499082021e-06  2.6102587745982996e-06  8.0742961177126776e-06  9.8875723792918959e-06  1.2201832462121586e-05  7.3056426549126398e-07  2.2411216532956137e-04  7.5937901168306795e-06  9.9322703368823904e-06  8.7920364733973901e-06  8.4041369937983982e-07  3.3791086865347365e-06  7.0128794317269667e-06  1.0375465396004940e-05  1.5883687357915816e-06  2.8703350019747693e-07  4.6537130369878042e-06  6.4887599852918490e-06  1.1136115105421879e-05  9.1580895794427935e-05  9.4834599892773545e-06  1.1360039044678967e-05  1.1508785287846279e-05  3.0511806974903061e-04  2.1897521891306187e-06  3.7601204636782587e-06  9.2050407866025999e-06  4.0610427448114743e-06  1.1966283705276659e-05  2.9276641617291643e-06  1.1042026348300807e-05  8.5615791731445496e-06  5.9948856938588140e-05  8.5057344994194503e-05  7.2744146990831611e-06  9.7594980990921038e-05  9.1522459040908806e-06  5.8952859637524119e-06  2.1248034493054571e-04  2.3405989390548693e-06  9.0067543505838951e-06  1.5072509001436059e-04  1.4172353921429830e-04  1.1501686501539959e-06  4.5634405259968206e-05  1.0451415288181033e-04  1.8808301994405137e-04  1.2562152443827270e-04  2.1818371472344072e-04  3.0110934474595458e-04  7.3437531653454383e-05  6.6020811219016625e-05  3.7662448495979721e-05  6.7134652539508835e-05  2.1044427785998757e-04  3.1105632083043279e-04  3.1658000493524043e-04  2.4844639680832859e-04  3.8808017966433881e-05  3.1177400218866907e-04  1.4263594609651250e-04  3.3881270280680910e-05  2.3357629371497559e-04  1.3778480357361876e-04  1.8492061214028820e-04  1.8790312578022590e-04  2.2773079432678359e-04  1.9162748125821628e-05  5.3291595275633929e-05  3.5225875350560143e-04  1.3235762341433710e-04  7.1927617526075066e-05  1.0104581488025615e-04  1.4161338240897738e-04  8.9150838329827743e-05  4.8529123122704261e-05  1.9558104378977222e-04  9.4578933545438559e-05  1.5077581811370346e-04  1.0098149416388013e-04  9.6859604280394320e-05  2.2798013465782055e-05  2.2237213527253236e-04  1.2811732757868582e-04  7.1758172122357870e-05  1.9434685836189515e-04  1.2992337820458204e-04  6.8654236306042683e-05  3.2875327638200559e-04  2.0062133241383149e-04  4.0220992330902601e-05  2.0451745778360817e-04  2.3639292432822622e-04  1.3869847729382418e-04  8.6962498000543376e-05  1.7386072312261094e-04  2.9609570616021832e-04  1.1953970034172025e-04  6.3031191106744972e-05  9.2342371180167322e-05  1.5102512438360042e-04  1.7222440991435128e-04  2.3343405670188782e-04  1.8975812428560651e-04  7.8440610131243909e-05  1.0655841711160463e-04  1.2054870397793474e-04  4.4400915617388971e-05  2.8648969002782224e-05  1.1211916264249634e-04  1.3880106108221440e-04  6.1506454086836631e-05  1.0984725815291119e-04  4.6154322932247504e-05  8.5224683014875529e-05  2.6075152066776746e-05  2.0078005619954151e-04  1.3578252597023293e-04  4.7979533052506611e-05  7.0814476838265098e-05  9.5721221671093510e-05  1.6062061675054014e-04  4.9156406339956306e-05  9.0366113617016425e-05  3.2566088855640545e-04  2.4413414868729947e-04  2.1957847320130342e-04  1.2596444493728992e-04  1.6932174883219745e-04  1.6833649295258118e-04  2.2179192068680974e-04  1.3500986547794754e-04  1.9217600678677918e-04  1.6504494343933223e-04  8.5826797179114022e-05  1.0723244896468371e-04  3.0431984887294560e-05  3.0213618239860441e-04  3.3206720904902876e-04  2.5707544680074771e-04  1.4114328724287948e-04  1.8556071677107235e-04  1.9922512395955083e-04  5.5315292332498366e-0