<?xml version="1.0"?>
<VTKFile type="UnstructuredGrid"  version="0.1"  >
<UnstructuredGrid>
<Piece  NumberOfPoints="12250" NumberOfCells="23858">
<Points>
<DataArray  type="Float64"  NumberOfComponents="3"  format="ascii">0 1 0  0 0 0  0.25 0 0  0.25 1 0  0.25 0.5 0  0 0.5 0  0.25 0.25 0  0 0.25 0  0 0.75 0  0.25 0.75 0  0.25 0.125 0  0 0.125 0  0.125 0 0  0.25 0.625 0  0 0.625 0  0.25 0.875 0  0.125 1 0  0 0.875 0  0 0.375 0  0.25 0.375 0  0.125 0.3125 0  0.125 0.5625 0  0.125 0.8125 0  0.125 0.125 0  0.109375 0.4375 0  0.109375 0.6875 0  0.09375 0.21875 0  0.15625 0.90625 0  0.25 0.0625 0  0.1875 0 0  0.0625 0 0  0 0.0625 0  0.0703125 0.9296875 0  0.25 0.1875 0  0.175 0.21875 0  0.1686580882352941 0.6314338235294118 0  0.25 0.5625 0  0.1686580882352941 0.3814338235294118 0  0.25 0.3125 0  0.1846093920839711 0.457675742811065 0  0.1846093920839711 0.7076757428110649 0  0.06963315217391304 0.8580163043478261 0  0.07291666666666667 0.07291666666666667 0  0.15625 0.0625 0  0.1875 0.84375 0  0.0625 0.28125 0  0.1875 0.53125 0  0.07552083333333334 0.7552083333333334 0  0.07552083333333334 0.5052083333333334 0  0 0.5625 0  0.07552083333333333 0.3697916666666667 0  0.07552083333333333 0.6197916666666666 0  0.1824174313243159 0.7757901373513681 0  0.0625 0.15625 0  0.25 0.9375 0  0.1875 1 0  0 0.8125 0  0 0.4375 0  0 0.6875 0  0 0.3125 0  0.25 0.6875 0  0.1875 0.285625 0  0.1875 0.151875 0  0 0.9375 0  0.0625 1 0  0.25 0.4375 0  0.25 0.8125 0  0 0.1875 0  0.1349233842818192 0.4925919004742429 0  0.1335152562773358 0.7418878364720013 0  0.0594917385057471 0.5625 0  0.203125 0.09375 0  0.0546875 0.4225260416666667 0  0.0546875 0.6725260416666666 0  0.2019136658660413 0.338216765427811 0  0.1995020000924898 0.5853709998150204 0  0.134375 0.2572916666666667 0  0.134375 0.1802083333333333 0  0.0542280474742976 0.8055614981858166 0  0.1221934647393398 0.8655188450868867 0  0.04166666666666666 0.21875 0  0.15625 0.9583333333333334 0  0.203125 0.890625 0  0.206713569888 0.4132614932290299 0  0.2115463505317381 0.65625 0  0.2012310606060606 0.9393939393939394 0  0.201171875 0.0458984375 0  0.03999561774661511 0.7201937510074146 0  0.0399956177466151 0.4701937510074146 0  0.035784841954023 0.34375 0  0.120327818627451 0.6397058823529411 0  0.120327818627451 0.3897058823529412 0  0.109375 0.9557291666666666 0  0.04564950980392158 0.1118259803921569 0  0.1118259803921569 0.04564950980392157 0  0.08025380291005291 0.3238673941798942 0  0.1112651209677419 0.9105762768817204 0  0.03211805555555555 0.90625 0  0.03828125 0.96171875 0  0.04036458333333334 0.04036458333333334 0  0.03620912949997044 0.5250978305837619 0  0 0.59375 0  0.162109375 0.1044921875 0  0.03118139907916267 0.8408194304321051 0  0.1571963533457454 0.590400949253577 0  0.1587578894014007 0.3394119764183286 0  0.1506969975490196 0.4218175551470588 0  0.1506969975490195 0.6718175551470588 0  0.2070906355574324 0.2473574746621622 0  0.2070906355574324 0.1901425253378378 0  0.08465650753054846 0.1224380150610969 0  0.1114330859658678 0.08648358070079884 0  0.04054746717714226 0.5986883868529541 0  0.25 0.15625 0  0.25 0.28125 0  0.25 0.71875 0  0.2084391486333693 0.742535064766066 0  0.2077428895139916 0.4936107790279832 0  0.25 0.96875 0  0.03666712336686759 0.7684569195137533 0  0.1109703176434807 0.3503952932678546 0  0.1109703176434807 0.6003952932678546 0  0.1323450854700855 0.21875 0  0.25 0.78125 0  0.2086853046321041 0.8079956092642081 0  0.08000310162272527 0.465131759144696 0  0.08000310162272528 0.715131759144696 0  0.1018832642575987 0.1578918738938707 0  0.09479166666666666 0.2583333333333333 0  0.03867928291393143 0.3857193939186725 0  0.09132584216562684 0.7915703900993829 0  0.09224586925287355 0.5407758212513062 0  0.2116835102241899 0.3752677467682454 0  0.0414061843625662 0.6367966883181331 0  0.25 0.21875 0  0.08681832107843138 0.4047372855392157 0  0.08681832107843135 0.6547372855392156 0  0.1712610500122523 0.4982534075100398 0  0.1479279021104813 0.5302308042209626 0  0.1402758174771396 0.4566398871709348 0  0.1401770623234474 0.7063796751786664 0  0.2135607759365587 0.6194448537498545 0  0.07848715477520853 0.8937711976365836 0  0.09934508737030834 0.8377256696305275 0  0.07675624887614536 0.0340696230396066 0  0.03406962303960659 0.07675624887614535 0  0.1440082713785475 0.7789727266050902 0  0.1660139782670602 0.8111869039237365 0  0.07431640624999999 0.96572265625 0  0.25 0.46875 0  0.1698567708333333 0.03024088541666667 0  0.171875 0.875 0  0.03645833333333333 0.2552083333333333 0  0.08098262222381999 0.18607118888809 0  0.02997236128493951 0.143180277430121 0  0.25 0.84375 0  0.2154679739181572 0.5534390521636856 0  0.03645833333333334 0.1822916666666667 0  0.03632264025522072 0.3070202805104414 0  0.21875 1 0  0.1513741686550626 0.8442167313996213 0  0.2168133977813582 0.4459955487717956 0  0.2190131322531496 0.703125 0  0.1727093113888277 0.7413852578608228 0  0.1701041666666667 0.2542708333333333 0  0.1517708333333333 0.1488541666666667 0  0.2142163753799392 0.1278941869300912 0  0.1587267574490621 0.3048224010443303 0  0.2156942356037362 0.3061689288285205 0  0.1725364379972955 0.1836837968219244 0  0 0.28125 0  0.25 0.59375 0  0.09623775023237939 0.2930336745498909 0  0.21875 0 0  0.25 0.03125 0  0.1670095396165001 0.5580904353245775 0  0.21875 0.859375 0  0.25 0.90625 0  0.06770833333333333 0.2392406798245614 0  0.1360540015737478 0.9322916666666666 0  0 0.65625 0  0.2159715577099652 0.7752374751740043 0  0.03967280310556515 0.8734198626945593 0  0.1077910012998816 0.762797795345007 0  0 0.40625 0  0.1171150579179289 0.5198108382041321 0  0.09070664895503529 0.5740093301963526 0  0.25 0.53125 0  0.1411005024478043 0.365749143953847 0  0.203125 0.9716815370501894 0  0.1837945203686314 0.6744812093095998 0  0.2183170921236503 0.1602468982335675 0  0 0.15625 0  0 0.09375 0  0.09375 0 0  0 0.53125 0  0.03125 0 0  0 0.03125 0  0 0.96875 0  0.03125 1 0  0 0.84375 0  0 0.90625 0  0 0.34375 0  0 0.46875 0  0 0.71875 0  0.25 0.65625 0  0.25 0.40625 0  0.15625 1 0  0 0.21875 0  0.25 0.34375 0  0.25 0.09375 0  0 0.78125 0  0.09375 1 0  0.15625 0 0  0.1382501640128451 0.6146706181423367 0  0.1029032040920708 0.4879819075298724 0  0.1112825458828796 0.718954367531518 0  0.2169638964623854 0.5228330254530568 0  0.1405591976966633 0.03688248058223706 0  0.02974586925287355 0.5550688899717633 0  0.2160338230385579 0.2760842074590348 0  0.02581632758445363 0.7963003271249862 0  0.224971958664313 0.921875 0  0.06400137079623429 0.5337450614030229 0  0.2037965081545127 0.21875 0  0.1853048017546082 0.1225569867710261 0  0.02797756823289423 0.4122583915708087 0  0.03201311651072376 0.4416354471567994 0  0.02802337245342894 0.662104489389812 0  0.03186754112015969 0.6915905787012612 0  0.2261855508973228 0.953125 0  0.08036684492372444 0.6860917176336441 0  0.08036684492372444 0.4360917176336441 0  0.1802741037799466 0.4278105955407592 0  0.1778428819444444 0.08089192708333333 0  0.2205285078642384 0.06907401179635761 0  0.1088722606056869 0.1940083737915799 0  0.1367254622493273 0.2860909589983134 0  0.06842073158759261 0.5920268866576984 0  0.184988977893691 0.9143419336810731 0  0.0418402777777778 0.9332465277777777 0  0.1871006213226104 0.6104250062100378 0  0.07985644640444792 0.8173374306235633 0  0.04732923247576441 0.4982821258888622 0  0.06611853992436414 0.780911006716439 0  0.2273935668277038 0.828125 0  0.1858696187385389 0.3143428712429033 0  0.1140892094017094 0.2390357905982906 0  0.1877922691669536 0.3617539661943096 0  0.05758674846768909 0.8333647569007363 0  0.1352608290824233 0.09973815947057559 0  0.1517706243282904 0.2004488161476693 0  0.1449695316901515 0.8810785158450758 0  0.09462378205504757 0.8708015690781575 0  0.227445339911385 0.578125 0  0.05745737992792876 0.4499181399758709 0  0.05780649493506441 0.7003314350163611 0  0.1187818739346447 0.7868226346316679 0  0.1745466635354981 0.9389032027907473 0  0.1256305258840564 0.838799819642297 0  0.06770833333333333 0.2124471236358035 0  0.02083333333333334 0.203125 0  0.140625 0.9791666666666667 0  0.1766821659552516 0.975561292200228 0  0.1620783318872163 0.4727483267075381 0  0.1536725427350427 0.2339082512469609 0  0.1617771474337578 0.278952823831228 0  0.02741604996872549 0.281090803289549 0  0.06183906994143391 0.3975310989925237 0  0.2268982540772563 0.2305832481508689 0  0.2294261974844445 0.203125 0  0.02083333333333332 0.234375 0  0.2223182091346154 0.02768179086538462 0  0.09616947414406221 0.7398115542262675 0  0.1053409896466572 0.4626386355124552 0  0.08648552069711524 0.09585218346816277 0  0.2272083926866681 0.3301067571674309 0  0.1294244353979274 0.06623776300617727 0  0.1263039818717184 0.1504857241294106 0  0.1149927180695202 0.2733691199751007 0  0.06199131875595188 0.7334062158692485 0  0.02625450755792898 0.7434924481572176 0  0.01945983991027112 0.484375 0  0.2275111354177403 0.3554598004473978 0  0.1921314999800934 0.3920320902063825 0  0.2289470153175877 0.4243266814421967 0  0.1870247299647788 0.6491605463078544 0  0.230773175265869 0.640625 0  0.2257840012722039 0.6780142623324342 0  0.2307273932539546 0.109375 0  0.2269693349086677 0.8972169952739968 0  0.1953125 0.8671875 0  0.162762385654881 0.6943720653954724 0  0.161588388430844 0.4440475151025772 0  0.2309500035219089 0.390625 0  0.2299311249500424 0.7955318348720017 0  0.02413306936009103 0.09948394181876646 0  0.09948394181876646 0.02413306936009104 0  0.1330536118107118 0.3370263238470877 0  0.1248085171568627 0.6658847783905228 0  0.1248085171568627 0.4158847783905228 0  0.1449811166772675 0.6384219919056187 0  0.1453180229233392 0.3903903978433153 0  0.09683485463150776 0.3822000850447938 0  0.09683485463150776 0.6322000850447937 0  0.223427517855915 0.4719270744719414 0  0.06546557658678889 0.6423413858921275 0  0.02224001017440792 0.5800747442977685 0  0.05437297849869319 0.3256533714011888 0  0.06877150140910145 0.3458900515631618 0  0.05106406938652892 0.3637940165204562 0  0.191795031
[...]
<PointData  Scalars="f_31260"> 
<DataArray  type="Float64"  Name="f_31260"  format="ascii">1.7909725319488368e+02  7.7676263258236897e+00  2.5603990640192899e+02  3.3940359141218664e+01  2.0492557808841315e+01  5.9690909713788407e+01  1.1548835181994956e+01  1.8978408379320769e+01  1.9363209732102158e+02  1.0868103155180071e+02  1.3499064464414548e+02  1.5323908967416193e+02  1.6624070045897700e+01  2.0835554125280879e+01  9.8530951456336567e+01  1.8772216141751878e+02  5.4462571365090767e+01  2.4595821503462403e+03  4.8423997944837742e+04  1.0195810625970327e+02  5.3825784447067997e+02  3.9471204121525994e+02  1.4522844812912381e+03  9.2928756089907131e+02  1.5330077337603852e+03  2.6370664664930205e+03  3.3782646465919861e+04  1.7372587179880802e+03  9.5534216301501722e+00  2.1894440955261611e+01  3.5925385675350142e+01  6.8052925690329474e+01  2.4760142975581824e+04  7.6347952343505568e+01  1.2118459502121095e+04  1.8518810785965939e+04  1.4770386843626758e+02  3.4400693892805589e+03  1.9145128135608812e+02  3.1998178371885240e+02  5.0824737915872556e+03  4.9473384052975814e+02  3.2732999558323957e+02  8.7355989012583435e+04  6.4610277054426060e+03  1.9758845178551701e+02  9.5252625400960619e+02  4.9986434405168693e+03  8.3835575682893250e+03  2.9634159905380958e+01  1.0488806964236028e+03  1.7989479744020416e+03  8.1695572211126361e+01  6.2668535461423289e+03  1.3777247765975428e+01  4.7765773046413119e+02  4.6818613226696996e+01  2.0364618227987171e+02  1.0741908959111319e+02  1.1076271854058358e+01  8.0582667722135440e+01  8.5863373018910465e+01  2.2582257674473989e+04  2.2913465565309647e+01  9.6300961610303961e+00  6.0408499454750164e+01  1.0434333996213269e+01  4.1200295487385137e+02  2.8624154729785994e+02  7.9173879754416851e+02  2.0302279275717814e+04  3.3559464093084534e+03  3.2474749147146889e+02  1.2954596914866114e+05  1.6866637324176132e+05  5.7614291475418827e+02  3.7475465531652208e+02  1.2240219719445954e+03  5.7466170406473859e+04  6.0319755708910270e+02  3.8002798915105616e+05  1.3627741837850542e+03  1.5538548013638814e+04  2.6257066125390043e+04  4.0716389165696711e+02  4.1765891132921817e+04  4.3211110292375715e+03  1.8699828775392911e+02  1.4363618940752227e+05  3.4340199111523054e+02  4.8978945287459396e+01  1.8545976891730811e+03  2.6097800255146367e+03  5.1968778465791675e+03  3.7020606851891728e+02  9.1263959876357476e+03  8.5904385837986024e+02  1.0941670693652854e+04  4.1322567091215606e+04  2.1708000843174388e+04  5.7630104663251632e+02  4.8991131861454778e+02  5.1182162392304633e+02  2.5809938165480031e+02  1.6173892991503202e+04  3.6826648033243719e+03  1.2489745980673499e+03  2.3166658832144954e+03  7.2427283833697093e+03  9.2473218014634972e+02  8.5320320935330727e+01  3.3355604833736891e+02  3.3280015521587035e+02  2.8932355011934096e+01  7.2732768220858659e+01  4.2241050059430688e+02  9.7158950207767532e+02  4.7012855482380583e+04  1.4125636155122874e+02  2.6871483079210837e+04  6.0125729657845000e+02  8.6353374105484178e+01  6.3654376408685209e+02  9.8209636749751255e+01  8.0769294335760860e+03  3.6339208251920099e+04  4.9541616655324714e+02  1.9980907342352889e+03  4.2600882585699583e+03  2.1921675694674905e+03  1.1761409675019152e+03  7.6452584892575601e+01  6.4587972987392618e+01  6.8036069732397382e+03  5.2452434202100797e+01  2.0958203739594237e+03  1.3049056727731471e+04  1.8353688679692485e+04  8.8691270724077754e+02  1.6253618368447783e+02  6.3670579966631431e+02  2.6797402767149149e+05  9.1505157977809415e+02  2.0578031488788829e+03  2.6763772371623018e+03  2.4418995942574225e+03  3.6430234251643867e+02  2.0607640933793709e+03  4.2874941198779066e+04  1.0316757189414429e+02  4.3119922310119036e+03  2.2985342671573080e+03  2.3070390302731598e+03  2.2295114685797995e+04  1.0032114299614154e+03  3.5184567877842213e+01  5.2469502381789152e+02  9.5437259790130192e+03  6.2791525717880450e+03  1.0035336309535012e+01  2.5060650946477759e+02  2.4976967023930700e+02  6.5130343054345569e+04  1.7768904205364888e+04  6.9885673335727679e+03  1.2978366280659798e+03  2.5985981049218568e+04  7.6694871890577788e+03  1.8975126457992934e+02  1.7987551387873935e+02  9.8292625840296580e+01  3.2025772677139599e+01  1.2575300088332604e+03  2.7019942045050379e+02  2.3759094460215751e+03  4.9786246683305371e+03  3.3520113794412265e+02  3.4772706836183825e+04  4.3161324148738004e+03  1.1043128121763529e+02  2.1160701901192745e+05  5.8433461242741587e+03  1.9380004098725416e+02  4.2126319663002705e+03  4.1386524407035586e+02  2.5819341135203572e+03  1.3161360567269521e+03  6.0564881013346676e+03  2.9195612426285743e+02  8.1522256852148876e+03  9.4042488175910904e+01  1.4716814078932792e+04  3.1577701467908253e+02  2.6895558291596745e+02  1.9887074617160988e+02  2.5453408350416811e+02  1.8532040285840964e+01  3.3679383941832195e+04  1.3558643151192180e+02  2.6672365607552500e+01  3.8606168963369828e+02  1.3708167625341423e+02  1.1752279600308113e+02  1.4354364759308000e+01  5.5757640454696475e+03  4.6050086425385615e+02  1.7672035453832056e+05  5.2070972970325343e+01  1.0581173530671845e+02  3.6214170585933942e+01  8.9210585510369256e+01  2.2889763285795762e+01  3.0561570055635844e+01  2.2926118784032059e+01  1.2335409284510968e+03  8.1690702989855777e+02  4.0687874382686869e+02  6.1979605242955677e+03  8.8362550903106221e+03  9.0140768476958561e+04  3.8489155700690225e+02  1.1704144397221165e+05  1.2505318192197306e+03  1.4083058009812660e+03  4.7754431557080743e+03  1.2006853256613754e+03  3.2560636929358327e+02  7.7979048371289389e+02  2.5351306913739254e+05  3.2100188947115221e+03  5.0066296862275187e+04  2.0270478826328261e+04  1.2402673389697791e+03  5.9261964659974792e+03  2.7677638033196531e+03  2.1401205971066240e+05  2.5815326731916368e+04  1.5327154077944925e+02  9.8633707463617293e+02  7.6835490340101262e+02  4.1382915975573769e+03  5.5377935436562817e+04  5.0615633046887422e+04  8.3677152987810086e+02  1.3949675535333787e+04  7.5057797488002558e+04  1.8949719568645185e+04  3.8059726473749879e+03  2.3372541757438489e+02  2.3463532190717210e+03  1.1316764340091258e+04  3.2140462291208223e+02  1.7901111353552667e+03  4.7087190548436558e+02  1.5942519473392858e+03  3.5582027491419167e+03  2.3663707660217347e+03  6.0043628825942187e+02  1.3920583997032123e+04  1.4275810506734965e+03  6.1894499375297724e+04  3.4177078468586888e+02  3.1474801862464381e+02  3.9906534633640416e+02  1.3349957948016984e+03  5.5127084730661670e+02  3.3448052855107545e+02  3.6867736839336709e+02  2.1663384058441507e+03  1.5464407078529786e+04  2.1913406153240589e+02  7.8337023734850588e+05  3.0064757577302731e+02  2.8294565787094198e+03  7.2795931146117182e+03  3.1488555410975018e+03  5.1817981994255547e+02  9.4621868638653359e+03  7.6692359914067265e+02  3.5837701117929544e+02  5.6408432309572811e+02  1.9690292390164424e+02  1.7888103032255245e+05  2.3926529081889440e+05  2.6182485478363029e+04  1.3203724503191984e+03  3.4827154750746849e+03  2.3452363193821407e+03  1.4063506605968039e+03  2.3778080681537597e+02  2.1403683622518685e+04  1.6845135789081360e+02  6.0662215248194479e+02  5.5166330907274835e+02  2.3668006124194817e+04  1.0302901022266543e+02  3.2079955972975818e+04  5.1185674769181406e+02  3.1187410188138106e+03  2.4494242531034709e+02  2.5942119818215338e+02  4.0588444752094333e+03  3.5054506057552271e+03  3.0872168724280192e+02  4.1850868248560982e+03  1.0343612446902102e+03  2.6230437685397868e+04  3.2679154949483473e+03  1.6643820488458729e+04  5.0361553396233867e+03  4.0732598151943494e+03  3.9199410678736581e+02  4.4700472388662155e+02  1.0383087314379966e+02  3.7247325913767490e+03  8.4580268154585356e+03  1.7937604500668691e+05  1.2676503659877701e+03  5.2879542329575370e+03  9.4193070506975255e+03  4.2866966103351371e+02  4.1407736909841128e+02  1.8174560003409402e+04  2.0593675406097813e+04  3.3346158852301494e+04  4.5753797520085154e+03  2.5506284554700983e+03  7.7021071358329618e+02  2.6856637497207948e+03  2.2705871326771162e+02  9.1540783760847739e+02  7.0894498358779107e+04  1.1135696065449597e+03  1.4337386867528269e+03  1.7533950674470507e+03  2.6954561800512970e+03  5.8975856733580677e+03  3.9801409917496814e+04  1.3720777981026611e+03  3.1988438035507033e+03  3.9880487796914647e+04  1.0452816133039819e+05  1.9782442600546707e+02  2.1197995339752790e+04  2.0203592941961265e+03  1.7191408818340385e+03  1.0731294561457308e+05  7.8045803842029100e+03  6.5553204287213327e+02  1.7845661809679681e+04  3.6620666992745942e+03  2.6779881207097420e+04  7.3124878667655139e+01  1.6571797536430566e+02  3.7288593812831809e+03  1.0283808776674168e+04  1.0833779479158217e+02  2.1031775664229117e+03  4.1463045539034847e+03  7.3470868878569863e+03  2.9555206341282252e+02  1.0860150513761066e+03  3.1548097111226620e+04  9.7223657321488318e+01  1.9072486534889565e+03  1.0614954838764677e+03  2.6188550318637567e+02  5.2706228227510144e+02  8.5158071774977998e+03  2.0019849937850753e+02  5.0602684590034505e+02  1.4683430343115720e+02  2.7748226543557621e+03  4.2073834334315390e+04  9.9961706338611305e+02  6.8372982666223129e+02  1.6678999322694740e+03  3.6777621270587602e+04  2.4786926022815578e+03  1.1006067649612348e+03  1.7779090204766292e+03  3.0239232968169758e+03  7.3357089556819301e+03  3.8321849583993007e+03  3.5166250701792495e+04  4.7784857654780271e+03  2.0123703952336109e+04  5.7032200689865504e+03  1.2649115968647595e+04  8.9206279487254025e+04  2.2099779436096792e+03  4.7470087441564658e+02  8.1174145031510971e+03  5.7156340730969896e+03  7.4378349864627153e+03  2.3554016317846690e+04  1.6690068527334201e+03  2.2176351909796763e+03  4.4477083424780091e+02  1.9207654076923009e+04  5.5315468754203187e+02  1.9791698899835319e+02  8.1062593960888000e+02  1.7532720768686318e+04  1.4621473289586018e+02  1.8314180980259623e+03  6.8207954558472693e+02  7.0511004451490180e+01  2.6855953719818448e+04  7.3667830691802563e+04  2.0088415552540243e+02  1.1328930194904428e+03  2.8517431762083896e+02  3.3641582768310895e+04  5.1986016474452144e+03  3.2429423856672365e+04  6.3081591441197553e+01  2.4557119670563043e+04  1.9206646512698776e+03  5.6025494429312346e+02  5.2421216385223215e+02  6.9319226069586568e+02  1.5376169251037124e+03  2.9906553791102311e+01  3.9620723210932856e+03  9.4588896129263303e+03  9.2037008273201118e+03  3.0826755687771179e+03  9.0265248338627146e+02  1.5974282814858705e+02  4.4455943531677400e+02  8.8650335521627073e+02  1.7404359253697442e+02  7.6189785476187180e+03  5.3371284063561725e+03  8.2788188946962657e+02  1.0154389824881717e+03  6.5698132111928419e+02  2.0512942907751770e+02  8.2651966357080546e+03  1.0617777573404409e+05  1.3985192102315618e+03  1.6412039834355355e+02  5.7655927037090005e+03  6.5246163029788033e+02  4.9606793694325717e+02  9.5526458666487797e+03  3.6345303761191701e+02  1.4385273252091474e+02  1.0644210019917167e+04  2.3388182552806666e+03  1.8614490850828909e+02  8.1287105319127681e+02  3.6108847687381689e+02  3.9271878474690698e+03  3.5976716651011307e+03  1.0704150169047384e+03  3.0630162407766270e+03  1.9040744334239282e+03  5.9763109740300922e+02  5.3541307073102462e+02  2.6050275612960577e+03  2.2352271691675774e+03  7.5729798158243398e+01  1.3293191895114630e+03  2.0525345557456303e+03  2.7315216256743520e+03  2.5842246543907895e+03  2.8596340946265671e+04  1.5299771349920004e+03  1.8400017390549955e+01  3.0134797886327232e+02  7.8075565542097058e+02  2.3432995284612439e+03  3.7922506967707005e+02  3.3317939332771391e+04  1.3967839371372750e+02  1.8515705529177518e+04  2.8806250857870877e+04  2.4948526094560450e+04  7.1313592417697942e+02  2.1195150760530271e+02  4.5249946691192572e+03  4.4505803629562124e+01  4.4861819199964615e+04  5.4453680202349017e+02  2.5255172738796877e+05  3.1799980416590264e+04  1.3403453280751413e+02  1.0423980285118331e+02  1.9349674751016090e+02  3.3212579166384521e+03  4.1422942641410191e+02  2.6399757513825185e+04  9.6096770004967084e+02  2.3671992842489871e+02  1.4623770982466415e+03  3.4833854073240104e+02  5.9928801070523650e+03  2.1498918143865870e+02  3.8539789288693419e+03  4.2565127727326023e+02  1.7296857492661478e+04  1.2302506137905593e+04  3.3342058993761248e+02  3.0898234035702053e+03  3.0039854055326543e+05  3.8234084093501679e+03  4.0359151642052042e+04  1.0713386771593434e+04  1.0223148755862192e+04  9.5945462864155070e+03  4.0507439111323299e+02  9.6895056304051595e+03  1.6673284339093989e+03  3.7965531903027979e+04  5.9847799620939827e+02  5.9478797140209072e+03  8.9197241062382418e+03  2.0991341134110274e+02  5.2527451795995967e+03  7.9609765246333836e+02  2.3793511172112130e+03  3.6341532793043581e+02  1.8140243153112831e+02  2.2940808830931321e+04  7.6649035986884826e+02  1.7082519909167524e+02  3.4715830009606211e+03  9.0069142052287225e+03  9.5506079713721121e+01  1.4118326047738396e+03  8.4434393943229145e+02  5.7555566616982662e+02  1.3953854550574664e+02  1.4170775247045665e+03  4.6845704190508968e+01  1.7146187729246967e+02  4.9592927857938475e+03  1.5884572117213211e+04  2.4468812230806682e+02  3.8871234269617918e+02  1.5612666681545463e+03  1.7106624600382673e+01  2.5291916903943006e+03  5.4943967292605310e+04  4.1262941626332054e+02  7.1837646521655188e+04  2.5151085263938779e+01  2.1440723418251448e+04  1.6126387843352197e+03  2.3360486982478980e+02  2.5346189141144441e+02  7.7240081571004601e+04  2.5464847740408604e+03  2.8292050915982418e+03  4.7649911121893570e+02  2.5935794368571214e+02  5.5305674486759024e+04  3.3701328506770813e+02  2.2959278814172006e+02  1.1828408509737276e+03  6.6453423312253119e+02  5.0785135249622761e+02  1.6731157602470944e+03  1.4037917551645674e+02  6.6480305740957488e+02  4.1444024930151807e+02  2.9288376293958340e+03  2.2066281514247195e+05  1.3322842107155031e+02  9.1367532254001719e+02  4.0204524301425278e+02  1.4515636081541804e+03  3.6944930190394812e+03  4.5670561920182799e+03  2.8325061474271711e+03  1.3880663658897953e+02  1.1414608388156591e+02  1.7427820614192115e+03  7.0025961337922618e+03  4.4355504456228795e+02  3.8446912287758943e+02  7.1320416868479588e+04  9.1130891412178642e+02  7.1385373960097895e+03  1.9528388860430022e+02  4.7355822471569411e+02  7.6228519461679980e+03  3.8663605139837563e+02  4.8859332534588837e+01  4.9278707624659155e+03  4.7366870546996665e+02  1.7522878347454099e+02  2.2552160622956947e+02  4.2824100762779763e+03  1.5957436557907761e+03  9.1953241517226570e+02  5.6816334865818571e+03  1.0254410802848690e+04  6.6768544636616090e+04  2.4241420978543516e+02  4.4953025862159831e+02  2.7636564179811526e+03  3.9283674956470361e+02  5.9740642895567873e+02  7.2300113570538684e+04  2.4749083574604589e+04  1.9688703023610185e+03  3.2622056961245539e+03  1.8211357206211318e+02  1.0743895632533436e+03  4.6082583324885576e+01  2.2805902781086166e+04  2.6453372186255711e+05  2.1850859428811073e+03  1.3134284806731889e+03  5.8943842732712010e+03  2.1674904375376786e+02  3.4640174518377415e+02  9.1928867557720423e+03  6.1152164352075044e+02  2.0467990109701968e+04  1.1600684318151403e+04  2.9091930865934328e+03  8.4426965051962679e+02  1.2034842601800370e+04  9.8579518090406473e+03  5.0781965195934879e+02  3.5034547756542561e+03  7.4677655655378123e+02  3.8227323416885540e+01  8.9184491610386246e+01  6.0524476621976937e+03  2.8796626110286337e+02  2.2494913247932814e+03  4.3626225806685159e+02  2.5102134085027446e+04  3.3548911780359316e+02  1.4151487036573342e+04  6.1369615519012150e+03  7.7182147472735896e+03  7.6296759498691671e+01  4.7572089774363758e+02  6.1711800487330411e+03  2.8430612113494698e+02  1.4590468433536860e+04  1.7424693928667875e+02  8.5189465900641224e+01  2.4197524768959646e+01  2.0792340367121204e+04  1.2802995373065295e+02  3.3845844322510828e+02  7.1213937726425661e+02  7.8005474522096383e+03  8.6225244273502722e+03  2.2314852626932469e+02  2.2251926966463947e+04  1.7101134095752343e+03  1.4594719223893892e+03  3.4357634604293958e+03  1.1929449493852076e+03  2.2778217878116939e+04  1.1460281318422408e+02  4.9127620440856344e+02  4.0115223881725575e+02  6.7959510008382631e+02  1.3630103091045689e+02  4.7898021564563555e+02  1.1808472138016903e+03  1.1792541593689386e+04  1.8925959676122632e+03  1.2065704344875944e+03  7.0446966138368234e+03  1.1858979260747724e+03  1.1949386421562428e+03  4.8864964166139644e+03  3.2608671686887941e+04  1.9980903548903964e+02  1.8251556717160845e+01  7.9443932614243465e+01  2.8232888880084218e+01  1.3226196135103029e+02  4.0202163669172143e+02  8.6284363176424762e+01  1.4672530634854461e+03  1.1971134238187929e+02  2.1905266954097831e+02  3.1821395456018870e+01  4.6198893707206726e+03  8.2530380484534092e+01  3.4002795895163472e+03  7.8790715815084326e+01  3.3995344412100337e+01  4.9879608305725213e+01  2.2341132599780235e+02  1.7188229202829297e+02  3.5958436807136607e+01  1.0925494081502986e+03  5.9884531806759867e+01  6.3414056669650505e+04  4.3724512992628533e+01  1.4195398341688817e+04  8.2816921537406074e+01  4.2296406223518966e+02  5.1474358719820615e+04  5.1285532321741158e+05  1.9316549329570481e+02  1.1235215057359519e+05  1.4036439774333454e+01  1.5873766094929931e+02  2.7613351049265964e+02  1.0571540841196897e+03  5.8237887703596891e+02  2.0207765756374378e+04  3.3084914402763445e+01  2.1081410522434140e+02  1.2374181417577789e+01  5.1070611257577276e+01  2.7664742463199758e+02  5.7218600346149640e+02  1.4843721775462427e+01  2.1884652246546639e+02  2.1097944305689684e+03  3.5716311225571530e+01  1.3905752310139958e+01  4.7285457139718010e+03  4.1720841527702270e+01  1.0969747952729884e+01  1.6894504690634787e+02  4.4705406767605629e+04  1.3753438809787187e+03  8.5739997829829611e+02  2.9029197763675606e+03  6.8701677856901988e+03  2.5452923129143419e+03  2.5090973134857968e+03  7.1953956342001620e+04  3.4231031871552688e+04  4.4287041527415090e+05  2.7007722351349930e+03  4.0454484999379332e+02  1.7808409732755374e+02  5.1757908721011722e+02  4.8953240268632517e+03  7.9429841009119696e+02  3.3720299602176783e+02  7.9274643378720455e+01  3.9565287017547064e+02  5.0692308824168231e+02  2.0062220488184601e+04  4.6460718795136199e+02  2.2406852949561608e+03  1.3814225458823913e+05  3.6807493320843770e+02  3.0567041396868859e+02  9.4003745645630897e+02  6.6690310369776134e+03  1.2963161803676437e+02  1.3606542827175832e+04  1.2644545388628707e+05  4.3446083172304276e+02  3.6105251528638750e+04  3.5212708556175380e+02  4.3714950290038269e+03  1.0437913644711946e+03  2.4193657954888340e+02  1.5479312005934544e+05  4.6620770186341417e+02  1.2615653509637656e+04  4.1422397480386251e+04  3.9502719390942713e+02  1.8348798193424003e+02  3.3634376781364199e+02  9.6816932863680208e+01  1.3803996674533473e+03  4.9509482778587824e+02  1.9548705774172677e+03  3.4135055144102530e+03  3.3787212713713490e+02  3.2985145867691346e+04  2.3385973373736206e+02  3.9114595890182732e+03  6.4223937878641627e+03  5.2888864267231445e+04  1.2868524932961854e+05  4.7969941253034294e+03  5.7942222295312786e+02  2.9577172152416874e+03  9.9881533365542555e+02  7.2949949634052318e+04  5.0510906929757784e+03  9.7195559060661308e+03  1.4068986934240491e+05  9.1142925345319100e+02  1.5322716098572525e+02  8.8774410341489602e+02  6.0285095592988146e+03  2.5301412690087072e+04  2.7574368201196758e+03  1.7299003551117687e+03  5.9453746215117993e+04  3.3062882623619753e+03  7.7713510671534721e+02  6.5799722155357142e+02  2.6138247095757157e+04  1.5622318230155572e+03  4.6219526699982425e+03  2.5232981196076587e+04  2.1130882706877767e+02  2.0324927407747809e+03  5.2161880736568155e+03  2.0467950745165876e+03  8.5929059991031208e+03  5.6788892757690146e+03  1.3853103078022947e+04  3.4113986549658802e+02  1.0562486927476415e+04  1.1437968693472836e+04  3.4911380332679878e+03  1.9468418467838734e+02  6.8438978369789293e+03  2.5703013892255194e+03  9.0276105236863077e+03  3.2007144588957381e+03  5.8451468324975167e+03  7.7293660323449092e+02  2.3252111091003467e+03  5.3167993179533960e+02  1.05903562682