<?xml version="1.0"?>
<VTKFile type="UnstructuredGrid"  version="0.1"  >
<UnstructuredGrid>
<Piece  NumberOfPoints="12250" NumberOfCells="23858">
<Points>
<DataArray  type="Float64"  NumberOfComponents="3"  format="ascii">0 1 0  0 0 0  0.25 0 0  0.25 1 0  0.25 0.5 0  0 0.5 0  0.25 0.25 0  0 0.25 0  0 0.75 0  0.25 0.75 0  0.25 0.125 0  0 0.125 0  0.125 0 0  0.25 0.625 0  0 0.625 0  0.25 0.875 0  0.125 1 0  0 0.875 0  0 0.375 0  0.25 0.375 0  0.125 0.3125 0  0.125 0.5625 0  0.125 0.8125 0  0.125 0.125 0  0.109375 0.4375 0  0.109375 0.6875 0  0.09375 0.21875 0  0.15625 0.90625 0  0.25 0.0625 0  0.1875 0 0  0.0625 0 0  0 0.0625 0  0.0703125 0.9296875 0  0.25 0.1875 0  0.175 0.21875 0  0.1686580882352941 0.6314338235294118 0  0.25 0.5625 0  0.1686580882352941 0.3814338235294118 0  0.25 0.3125 0  0.1846093920839711 0.457675742811065 0  0.1846093920839711 0.7076757428110649 0  0.06963315217391304 0.8580163043478261 0  0.07291666666666667 0.07291666666666667 0  0.15625 0.0625 0  0.1875 0.84375 0  0.0625 0.28125 0  0.1875 0.53125 0  0.07552083333333334 0.7552083333333334 0  0.07552083333333334 0.5052083333333334 0  0 0.5625 0  0.07552083333333333 0.3697916666666667 0  0.07552083333333333 0.6197916666666666 0  0.1824174313243159 0.7757901373513681 0  0.0625 0.15625 0  0.25 0.9375 0  0.1875 1 0  0 0.8125 0  0 0.4375 0  0 0.6875 0  0 0.3125 0  0.25 0.6875 0  0.1875 0.285625 0  0.1875 0.151875 0  0 0.9375 0  0.0625 1 0  0.25 0.4375 0  0.25 0.8125 0  0 0.1875 0  0.1349233842818192 0.4925919004742429 0  0.1335152562773358 0.7418878364720013 0  0.0594917385057471 0.5625 0  0.203125 0.09375 0  0.0546875 0.4225260416666667 0  0.0546875 0.6725260416666666 0  0.2019136658660413 0.338216765427811 0  0.1995020000924898 0.5853709998150204 0  0.134375 0.2572916666666667 0  0.134375 0.1802083333333333 0  0.0542280474742976 0.8055614981858166 0  0.1221934647393398 0.8655188450868867 0  0.04166666666666666 0.21875 0  0.15625 0.9583333333333334 0  0.203125 0.890625 0  0.206713569888 0.4132614932290299 0  0.2115463505317381 0.65625 0  0.2012310606060606 0.9393939393939394 0  0.201171875 0.0458984375 0  0.03999561774661511 0.7201937510074146 0  0.0399956177466151 0.4701937510074146 0  0.035784841954023 0.34375 0  0.120327818627451 0.6397058823529411 0  0.120327818627451 0.3897058823529412 0  0.109375 0.9557291666666666 0  0.04564950980392158 0.1118259803921569 0  0.1118259803921569 0.04564950980392157 0  0.08025380291005291 0.3238673941798942 0  0.1112651209677419 0.9105762768817204 0  0.03211805555555555 0.90625 0  0.03828125 0.96171875 0  0.04036458333333334 0.04036458333333334 0  0.03620912949997044 0.5250978305837619 0  0 0.59375 0  0.162109375 0.1044921875 0  0.03118139907916267 0.8408194304321051 0  0.1571963533457454 0.590400949253577 0  0.1587578894014007 0.3394119764183286 0  0.1506969975490196 0.4218175551470588 0  0.1506969975490195 0.6718175551470588 0  0.2070906355574324 0.2473574746621622 0  0.2070906355574324 0.1901425253378378 0  0.08465650753054846 0.1224380150610969 0  0.1114330859658678 0.08648358070079884 0  0.04054746717714226 0.5986883868529541 0  0.25 0.15625 0  0.25 0.28125 0  0.25 0.71875 0  0.2084391486333693 0.742535064766066 0  0.2077428895139916 0.4936107790279832 0  0.25 0.96875 0  0.03666712336686759 0.7684569195137533 0  0.1109703176434807 0.3503952932678546 0  0.1109703176434807 0.6003952932678546 0  0.1323450854700855 0.21875 0  0.25 0.78125 0  0.2086853046321041 0.8079956092642081 0  0.08000310162272527 0.465131759144696 0  0.08000310162272528 0.715131759144696 0  0.1018832642575987 0.1578918738938707 0  0.09479166666666666 0.2583333333333333 0  0.03867928291393143 0.3857193939186725 0  0.09132584216562684 0.7915703900993829 0  0.09224586925287355 0.5407758212513062 0  0.2116835102241899 0.3752677467682454 0  0.0414061843625662 0.6367966883181331 0  0.25 0.21875 0  0.08681832107843138 0.4047372855392157 0  0.08681832107843135 0.6547372855392156 0  0.1712610500122523 0.4982534075100398 0  0.1479279021104813 0.5302308042209626 0  0.1402758174771396 0.4566398871709348 0  0.1401770623234474 0.7063796751786664 0  0.2135607759365587 0.6194448537498545 0  0.07848715477520853 0.8937711976365836 0  0.09934508737030834 0.8377256696305275 0  0.07675624887614536 0.0340696230396066 0  0.03406962303960659 0.07675624887614535 0  0.1440082713785475 0.7789727266050902 0  0.1660139782670602 0.8111869039237365 0  0.07431640624999999 0.96572265625 0  0.25 0.46875 0  0.1698567708333333 0.03024088541666667 0  0.171875 0.875 0  0.03645833333333333 0.2552083333333333 0  0.08098262222381999 0.18607118888809 0  0.02997236128493951 0.143180277430121 0  0.25 0.84375 0  0.2154679739181572 0.5534390521636856 0  0.03645833333333334 0.1822916666666667 0  0.03632264025522072 0.3070202805104414 0  0.21875 1 0  0.1513741686550626 0.8442167313996213 0  0.2168133977813582 0.4459955487717956 0  0.2190131322531496 0.703125 0  0.1727093113888277 0.7413852578608228 0  0.1701041666666667 0.2542708333333333 0  0.1517708333333333 0.1488541666666667 0  0.2142163753799392 0.1278941869300912 0  0.1587267574490621 0.3048224010443303 0  0.2156942356037362 0.3061689288285205 0  0.1725364379972955 0.1836837968219244 0  0 0.28125 0  0.25 0.59375 0  0.09623775023237939 0.2930336745498909 0  0.21875 0 0  0.25 0.03125 0  0.1670095396165001 0.5580904353245775 0  0.21875 0.859375 0  0.25 0.90625 0  0.06770833333333333 0.2392406798245614 0  0.1360540015737478 0.9322916666666666 0  0 0.65625 0  0.2159715577099652 0.7752374751740043 0  0.03967280310556515 0.8734198626945593 0  0.1077910012998816 0.762797795345007 0  0 0.40625 0  0.1171150579179289 0.5198108382041321 0  0.09070664895503529 0.5740093301963526 0  0.25 0.53125 0  0.1411005024478043 0.365749143953847 0  0.203125 0.9716815370501894 0  0.1837945203686314 0.6744812093095998 0  0.2183170921236503 0.1602468982335675 0  0 0.15625 0  0 0.09375 0  0.09375 0 0  0 0.53125 0  0.03125 0 0  0 0.03125 0  0 0.96875 0  0.03125 1 0  0 0.84375 0  0 0.90625 0  0 0.34375 0  0 0.46875 0  0 0.71875 0  0.25 0.65625 0  0.25 0.40625 0  0.15625 1 0  0 0.21875 0  0.25 0.34375 0  0.25 0.09375 0  0 0.78125 0  0.09375 1 0  0.15625 0 0  0.1382501640128451 0.6146706181423367 0  0.1029032040920708 0.4879819075298724 0  0.1112825458828796 0.718954367531518 0  0.2169638964623854 0.5228330254530568 0  0.1405591976966633 0.03688248058223706 0  0.02974586925287355 0.5550688899717633 0  0.2160338230385579 0.2760842074590348 0  0.02581632758445363 0.7963003271249862 0  0.224971958664313 0.921875 0  0.06400137079623429 0.5337450614030229 0  0.2037965081545127 0.21875 0  0.1853048017546082 0.1225569867710261 0  0.02797756823289423 0.4122583915708087 0  0.03201311651072376 0.4416354471567994 0  0.02802337245342894 0.662104489389812 0  0.03186754112015969 0.6915905787012612 0  0.2261855508973228 0.953125 0  0.08036684492372444 0.6860917176336441 0  0.08036684492372444 0.4360917176336441 0  0.1802741037799466 0.4278105955407592 0  0.1778428819444444 0.08089192708333333 0  0.2205285078642384 0.06907401179635761 0  0.1088722606056869 0.1940083737915799 0  0.1367254622493273 0.2860909589983134 0  0.06842073158759261 0.5920268866576984 0  0.184988977893691 0.9143419336810731 0  0.0418402777777778 0.9332465277777777 0  0.1871006213226104 0.6104250062100378 0  0.07985644640444792 0.8173374306235633 0  0.04732923247576441 0.4982821258888622 0  0.06611853992436414 0.780911006716439 0  0.2273935668277038 0.828125 0  0.1858696187385389 0.3143428712429033 0  0.1140892094017094 0.2390357905982906 0  0.1877922691669536 0.3617539661943096 0  0.05758674846768909 0.8333647569007363 0  0.1352608290824233 0.09973815947057559 0  0.1517706243282904 0.2004488161476693 0  0.1449695316901515 0.8810785158450758 0  0.09462378205504757 0.8708015690781575 0  0.227445339911385 0.578125 0  0.05745737992792876 0.4499181399758709 0  0.05780649493506441 0.7003314350163611 0  0.1187818739346447 0.7868226346316679 0  0.1745466635354981 0.9389032027907473 0  0.1256305258840564 0.838799819642297 0  0.06770833333333333 0.2124471236358035 0  0.02083333333333334 0.203125 0  0.140625 0.9791666666666667 0  0.1766821659552516 0.975561292200228 0  0.1620783318872163 0.4727483267075381 0  0.1536725427350427 0.2339082512469609 0  0.1617771474337578 0.278952823831228 0  0.02741604996872549 0.281090803289549 0  0.06183906994143391 0.3975310989925237 0  0.2268982540772563 0.2305832481508689 0  0.2294261974844445 0.203125 0  0.02083333333333332 0.234375 0  0.2223182091346154 0.02768179086538462 0  0.09616947414406221 0.7398115542262675 0  0.1053409896466572 0.4626386355124552 0  0.08648552069711524 0.09585218346816277 0  0.2272083926866681 0.3301067571674309 0  0.1294244353979274 0.06623776300617727 0  0.1263039818717184 0.1504857241294106 0  0.1149927180695202 0.2733691199751007 0  0.06199131875595188 0.7334062158692485 0  0.02625450755792898 0.7434924481572176 0  0.01945983991027112 0.484375 0  0.2275111354177403 0.3554598004473978 0  0.1921314999800934 0.3920320902063825 0  0.2289470153175877 0.4243266814421967 0  0.1870247299647788 0.6491605463078544 0  0.230773175265869 0.640625 0  0.2257840012722039 0.6780142623324342 0  0.2307273932539546 0.109375 0  0.2269693349086677 0.8972169952739968 0  0.1953125 0.8671875 0  0.162762385654881 0.6943720653954724 0  0.161588388430844 0.4440475151025772 0  0.2309500035219089 0.390625 0  0.2299311249500424 0.7955318348720017 0  0.02413306936009103 0.09948394181876646 0  0.09948394181876646 0.02413306936009104 0  0.1330536118107118 0.3370263238470877 0  0.1248085171568627 0.6658847783905228 0  0.1248085171568627 0.4158847783905228 0  0.1449811166772675 0.6384219919056187 0  0.1453180229233392 0.3903903978433153 0  0.09683485463150776 0.3822000850447938 0  0.09683485463150776 0.6322000850447937 0  0.223427517855915 0.4719270744719414 0  0.06546557658678889 0.6423413858921275 0  0.02224001017440792 0.5800747442977685 0  0.05437297849869319 0.3256533714011888 0  0.06877150140910145 0.3458900515631618 0  0.05106406938652892 0.3637940165204562 0  0.191795031
[...]
<PointData  Scalars="f_24843"> 
<DataArray  type="Float64"  Name="f_24843"  format="ascii">4.0247499934577020e-06  1.0809654760687321e-06  1.1982769315993790e-07  1.1350590256547217e-05  5.1052107781836865e-06  1.2280506997178145e-05  1.0566667594817582e-05  7.7285932624927728e-06  4.8795547811110456e-07  1.2656075368329453e-06  6.4461252162895878e-06  1.1013923194626841e-05  9.1313120222648363e-05  1.2252706645564296e-05  8.2093143498868670e-06  1.2368329570691087e-05  8.2507141616223144e-05  4.8271250356703361e-06  3.4733741877697566e-06  5.2020156357414346e-06  6.6548454995662309e-05  7.5410145520691456e-05  5.5371728372312885e-05  8.5649426767146707e-05  5.3901893653612581e-05  5.4852183525294377e-05  2.4597335409889304e-05  3.7427077065515129e-05  9.0252715963223067e-06  5.6022038913319798e-05  4.4214593385053611e-05  8.1018155560852634e-06  2.6282665711634476e-05  2.6564414560326380e-06  3.7011658743323150e-05  2.5923718937635132e-05  6.1511241638892795e-06  3.3002934684375715e-05  1.0164081133419239e-06  4.6267706468334546e-05  2.8232935129299130e-05  4.4857132926899537e-05  4.5043773604614839e-05  2.7775075567476963e-05  3.7867896733055089e-05  3.8926599759024942e-05  3.6431108093030035e-05  3.1091738358562318e-05  3.3944510853336784e-05  1.2051403016707528e-05  5.3496849197978529e-05  3.9089292294630873e-05  5.7638045185652847e-05  4.1432399485126368e-05  1.2416278731960399e-05  4.6476524850628419e-05  4.4822983488260517e-06  8.6575906897090381e-06  4.7443327431933445e-07  7.8376526424189589e-06  5.9495269007017237e-06  5.5435192223367669e-05  3.6492951424726494e-05  6.6200751852065630e-06  5.7471891704102307e-05  1.0951963892257390e-05  1.1469134615772273e-05  9.2702852194230200e-06  7.3029108131588029e-05  6.4613091149364531e-05  2.9458784263300140e-05  1.9278038529426852e-05  4.9261066682519622e-05  1.6884122581454420e-05  1.4891284423332773e-05  2.9501137794050256e-05  6.3917846454256979e-05  5.6209311979947935e-05  1.7152833131033029e-05  6.6167506562153083e-05  1.0219239269015083e-05  5.3451446992895911e-05  1.9421349195107277e-05  1.6194575283040139e-05  3.2983269181338080e-05  2.1619707463955329e-05  1.7120261952281994e-05  4.9071511867431618e-05  1.6103695317367825e-05  2.1023900662519566e-05  6.6520782994643616e-05  6.4608545982982067e-05  4.5936273643791866e-05  2.9975805503917927e-05  6.4868933463542455e-05  3.1863853721110512e-05  5.8859147254782336e-05  1.2365713268832902e-05  1.4929893441882311e-05  1.7892817587450443e-05  3.3800154028018985e-05  1.3894686586224072e-06  5.2984317999346182e-05  3.7608417602696350e-05  3.5242743137340028e-05  3.5538679291893064e-05  5.0015352468109422e-05  5.2420980113775184e-05  1.6968215935564559e-05  3.0481243781952201e-05  7.0893362635802219e-05  6.4282078856324809e-05  4.2259271182402675e-05  1.0438120493790082e-05  3.2931369170647123e-06  7.2681257911989392e-06  2.5237862963465931e-05  1.6433412140612857e-05  2.1415151297705978e-06  1.4259773108138587e-05  6.5255441683849188e-05  8.9557477453407671e-05  5.2451565769466890e-05  7.3902434798834230e-06  2.4368560839535994e-05  2.8619058330145616e-05  5.3330484950479031e-05  5.2340908436786533e-05  4.0372356771609156e-05  2.6717501972590358e-05  3.7528254953346531e-05  6.7138446994492222e-05  1.9638831301163436e-05  1.7825650005129124e-05  8.3434616476804285e-06  6.4924968888388970e-05  3.2640430757580890e-05  3.7162888384023525e-05  7.2430691431820202e-05  6.9824516611089168e-05  7.1685016898671795e-05  1.1940121043116176e-05  4.3545188518912453e-05  4.5124280729077913e-05  3.4139479993987360e-05  2.1812788718722471e-05  7.7916947112328808e-05  4.6328919363691616e-05  2.8915053871374074e-05  4.8166999166096444e-06  2.9362839299881430e-05  3.6881649672056761e-05  1.9000962742357686e-05  2.7048058902644859e-05  3.3639905039812429e-05  1.1327086508686076e-05  4.6034059920341292e-05  2.3091630204904168e-05  1.4504017237736287e-05  4.2339692105002414e-05  7.6578117267587253e-05  4.4798490294391248e-05  1.2921895663464074e-05  3.6363013444661472e-05  3.5798581794029516e-05  6.6755873015150467e-05  2.0689867215196967e-05  4.4217328575451007e-05  3.0634882317437690e-05  6.6977002872151077e-05  8.1038027702931046e-06  3.0622244090842895e-06  5.6834184921437285e-05  4.5714617281937679e-05  2.6359584945414019e-07  4.4888544126838538e-05  3.1749736016328021e-05  2.1158936918101904e-06  1.6423623635353104e-05  8.1353945632205385e-05  1.5104670428049694e-08  2.3158554748421446e-05  4.5419241681934760e-05  4.6634304149860612e-05  3.4278365075598841e-06  5.5562724260605937e-05  5.3694315000733171e-05  8.9117576416838380e-07  6.6545971315642955e-05  2.6534542923041093e-05  5.1186020888866992e-05  1.5439582058956323e-05  1.0845246310394766e-05  7.7313956681701276e-06  5.4304173503185506e-05  7.5505210269964637e-06  2.7184715121191938e-05  2.8556885569139257e-06  4.5858929584668001e-07  5.2018062666923607e-05  1.0590861667388769e-05  8.6210847188631225e-06  1.5256207728277515e-06  1.0857853196472759e-05  4.4369809072215688e-07  3.9746118319419992e-06  3.6193672064759794e-06  7.5539387266017726e-05  6.2711092330849988e-06  8.6255998160795290e-06  1.1646642686146834e-05  1.0943547380358886e-05  6.4043262827377358e-05  7.1330048009160486e-05  5.0306266664747246e-05  4.3249570854602865e-05  7.6117258098405946e-05  1.6930523326795204e-05  3.7852785296851001e-05  1.4407592593335381e-05  3.8268972420639339e-05  8.3455731383443917e-06  1.2286220742099894e-05  4.0005348677169434e-05  2.1560584443734382e-05  4.2459376446287209e-05  3.9456439074064267e-05  3.0229487624124200e-05  8.7810801628282080e-06  1.7000041472856287e-05  1.0205569520985535e-05  3.0604094250492177e-05  4.0565481444039768e-05  3.4513347830385513e-05  2.6901748675712678e-05  9.6058561307432287e-06  3.3142084130613529e-05  7.8920665973902568e-05  4.3537658513431833e-05  2.5973785133111838e-05  1.2170204294656574e-05  1.9184006410670065e-05  2.7882591411006168e-05  2.1485346267917787e-05  2.3446501179272744e-05  1.3193698333763285e-05  2.5784847092619363e-05  3.8667313667059036e-05  2.7993576488046398e-05  2.6598125609059553e-05  5.3852870406910147e-05  6.7373155648305612e-05  4.3388049196979849e-05  6.7891479130511773e-05  2.7404129232404482e-05  2.7643792746003902e-05  3.1178963122755707e-05  6.7192089588855977e-05  3.5947327568116742e-05  6.1012266339479596e-05  1.6900800625583264e-05  1.6029278540603416e-05  8.3595770735109119e-05  4.9659455070017185e-05  5.2329432445151662e-05  5.2805940124517711e-05  5.9471930438609114e-05  3.1540478811104771e-05  4.7725877597765537e-05  1.0970265803774876e-05  3.1125072579474885e-05  6.1494951930200738e-06  4.1325897537557468e-05  4.4613185184782955e-05  4.0437295496552404e-05  5.6077403363370529e-05  1.7664970160862591e-05  4.0000513297287185e-05  7.2262353239853906e-05  6.6622329848689839e-05  4.8788480047646153e-05  3.1617817732893137e-05  1.0843028996644977e-05  7.1101452872282724e-06  2.1947795752463125e-05  1.2494044339006583e-05  2.6130402418695930e-05  1.2974839863727272e-05  2.3834510058953514e-05  2.1863363517616224e-05  1.1284769638681215e-05  4.1147759095298132e-05  5.1647129147818106e-05  5.7925161644651019e-05  1.0106089081798956e-05  3.4793780612996020e-05  1.4465051972363223e-05  5.3590480606648432e-05  5.3334754700122933e-05  6.7862848700900731e-05  7.2199905280333137e-05  4.2404517992657457e-05  4.5266776202687679e-05  8.1115746882610227e-05  4.6860873008961253e-05  1.7904408631365182e-05  2.3271640028733359e-05  1.6199467338506752e-05  2.1471016470434220e-05  3.5212276901406556e-05  2.9339155555198922e-05  4.8542673669636863e-05  3.1476806160489013e-05  9.4242072987131187e-05  4.2638712942647166e-05  2.5611318493211950e-05  1.9985024583460833e-05  3.2929940053921895e-05  1.3643653012319646e-05  3.1449107623388178e-05  4.8484844103299768e-05  5.5529276898054971e-05  3.0439730194479501e-05  9.0130474315630141e-06  1.3016840865367807e-05  1.8469431795176700e-05  5.1626989503376741e-05  5.6774558546555479e-05  4.9740141965176609e-05  6.9020603005135719e-05  4.2295386179869672e-05  2.3412621984001937e-05  5.8809143175418196e-05  2.1469569650814455e-05  4.8404488273461925e-05  3.1981759713604415e-05  2.1086430625961791e-05  1.0462028027712952e-05  1.2418315287111054e-05  2.8889671758503272e-05  1.8916659852222101e-05  1.2618615125039745e-05  7.8196299771974857e-05  3.7936746051398736e-05  2.5633876356354313e-05  2.7618268424537157e-05  7.3733931870678206e-06  8.3610846984894839e-06  5.7957954893752707e-05  2.9395314160961211e-05  1.0882657466699603e-05  3.7670560926362825e-06  2.8042202564166050e-05  3.4768476853225116e-05  3.0444599138308334e-05  8.8982518368616148e-06  2.5494375905052450e-05  1.5054636353916422e-05  1.4105636255886827e-05  3.7263787068360822e-05  2.9073110207624142e-05  2.1247009067639965e-05  4.3478484538810875e-05  3.4990139563141373e-05  4.4812109997619422e-05  1.5740193572045164e-05  7.0109055212812650e-05  3.0881625821841470e-05  1.6480015835819480e-05  7.9188820188311502e-05  6.3923289399161906e-05  7.7563105214418235e-05  2.7099741319544040e-05  2.3389956539510966e-05  3.6197961899735196e-05  6.9281554078341981e-05  5.8463559793791887e-05  2.3310309633936535e-05  1.1840002892822251e-05  4.0248510433284641e-05  3.2238476974823874e-05  3.2140310849577328e-05  2.0552934255324872e-05  3.3109154247627133e-05  3.4024959640696339e-05  3.8276501468470655e-05  3.8063716340719332e-05  2.8092620431017436e-05  2.2778318946621099e-05  9.7018576950851486e-06  4.8236566053608565e-05  4.8508583490486637e-05  2.7010721886936632e-05  4.3143227190936105e-05  1.5575609383898000e-05  4.4198440413830421e-07  1.4221420679547961e-05  3.0078734382761277e-05  4.3369931486760098e-05  2.7154142710489938e-05  3.7974454344473346e-05  5.5967144398284929e-05  5.7996470944160790e-05  3.3456793971777260e-05  1.1979176412664757e-05  1.2964878718386584e-05  2.5541264037997539e-05  1.0619326878462326e-05  7.9104955397673389e-06  2.5673775727743305e-05  2.6093076700478429e-05  3.1228070767838394e-05  7.7418127304059109e-05  2.0806336409928293e-05  4.4712095602687504e-05  1.6938291782881052e-05  7.1812274010935155e-06  1.3933406949760660e-05  1.8322515599291084e-05  6.3138910676124846e-05  4.3345614887310731e-05  5.7650585865298737e-05  3.7317795628795346e-05  7.4769996784064606e-05  1.7733467218841010e-05  4.9290671561122939e-05  5.0821805939103337e-05  3.9068750497702171e-05  7.0614837492355534e-05  8.6826340115449068e-05  7.3304708909399473e-05  6.5986143144980530e-05  8.7627146616833915e-05  2.3202259576432630e-05  4.5276005038593523e-05  2.2675317847190488e-06  5.4356402071436596e-05  5.1568210993870228e-05  5.6320604159357765e-05  3.3815329947705118e-05  1.6786190568693785e-05  6.5676353864066439e-05  7.3300990843229221e-05  3.9455286963547577e-05  6.5286352547146530e-05  6.6233102574660653e-05  3.2334400143513273e-05  3.9382737400127467e-05  5.8551045879644060e-05  3.0202097941558252e-05  4.4772058919232839e-05  8.2853594994511059e-05  7.3552555155620547e-05  5.7435699550654981e-05  4.9398379847034682e-05  5.7276695520820257e-05  6.2837220309922007e-05  4.6203495247006698e-05  3.9807440486659572e-05  4.1270532351474341e-05  4.8433768731635905e-05  3.9210130726497273e-05  4.9280532280261326e-05  4.7672594431084562e-05  2.2464335082793845e-05  5.3328700548461751e-05  4.8517378329893282e-05  2.4846176255818567e-05  8.8444267767265553e-06  1.7665787722570523e-05  1.1716181773122524e-05  6.2992013074772421e-05  5.1628517957728981e-05  3.4462461391386384e-05  7.0237341811391933e-05  2.0861798215487139e-05  4.1337225078092660e-05  1.1034080146520984e-05  1.4582523662645898e-05  1.4031626007325972e-05  1.9230527149952484e-05  3.3779786269675429e-05  4.0308838431019857e-05  1.1198986175631019e-05  1.9070762070702965e-05  1.8124669837320462e-05  8.9048042235661401e-07  7.7929984738173381e-06  6.6915222810078959e-05  4.9777519947415656e-05  3.4135172725052649e-05  1.0064899656694015e-05  3.6288256423809021e-05  2.3208473803039763e-05  2.5925950410602642e-05  5.0851535737852123e-05  5.7784006420678341e-05  5.4663815963582557e-05  2.9153344178768788e-05  6.8456595702119275e-05  5.4883256916283782e-05  6.5941863852911564e-05  2.4185247628159209e-05  3.2305763697710814e-05  4.8536216873539693e-05  1.4066021166169127e-05  7.5109866256235863e-06  1.3952006427618327e-05  8.8838315723741041e-06  4.8501339667098961e-05  3.1965396917988592e-05  2.2568399561913922e-05  6.6346701602152506e-05  2.3082127568639941e-05  5.1853589215775590e-05  1.3471073979984072e-05  3.1999125709260557e-05  3.6573456871667468e-05  5.1377009009196614e-05  7.1460689786300463e-05  4.7685479212277216e-05  7.4110904367359490e-05  3.6973676566351823e-06  6.7299720077621371e-05  2.8255352017112047e-05  2.8567688806937845e-05  5.5324070937386757e-05  6.9832905336037574e-05  1.7499955323979557e-05  4.5964454980983745e-05  2.5892618542742303e-05  4.5341928973219183e-05  4.3910003642583859e-05  2.9753027414745100e-05  5.7652456840274468e-05  3.6159439896657109e-05  9.9755851064791113e-06  5.3899212202510839e-05  3.5279971705765966e-05  1.2228092065380820e-05  1.4773691587172508e-05  7.1850045317180589e-05  5.0759626305382874e-05  6.9026297554176502e-05  7.1963351330039924e-06  2.2405662646475902e-05  1.1743121335388989e-05  2.4084273116829871e-05  6.0503400240982595e-05  2.1980588405972664e-05  5.8615187949182870e-05  6.3375106488705382e-05  2.2972545673924923e-05  3.1826943032247340e-05  2.4471400845459920e-05  1.3180753599368038e-05  5.1895700447344458e-06  2.5065465863595657e-05  2.1230454465516711e-05  7.4854313237981260e-05  5.6151572035107601e-05  1.8970738386239033e-05  3.5904025452992118e-05  2.2345366717846458e-05  5.5659311961044843e-05  2.4827547253794640e-05  2.6896975553980725e-05  5.0997389633270892e-05  3.5935140361582641e-05  8.5454602194690999e-06  6.7159310058448126e-05  3.5226493993353240e-05  4.8906746124520934e-05  5.9019401000728227e-05  4.9737659011985222e-05  5.3677743286458107e-05  2.5441974882486904e-05  5.6182349166378894e-05  9.6085283697895267e-05  3.7290024452971024e-05  2.1200559587237899e-05  3.0172404722168351e-05  7.3139314672582972e-05  1.0592071070845054e-05  4.8419280576693889e-05  1.4193790859274088e-05  2.6003686557627774e-05  6.1951961465552563e-05  9.8233752741051724e-06  5.0366996847530674e-05  5.9392619802750754e-06  3.0116797813211655e-05  4.7091126730406348e-05  1.5326367686501711e-05  7.6251163565553123e-05  2.9522140244651293e-05  2.4611032656247415e-05  2.7377980675238941e-05  3.0914062287926718e-05  3.8880901513100472e-05  6.8753800904498065e-06  7.6102499113736205e-05  2.1655075238304389e-06  4.9528393935248629e-05  4.9637426451194174e-05  7.1324457213779664e-05  7.4708360321392344e-06  2.5910813114690665e-05  1.1457855172236384e-05  3.1743138327289968e-05  4.6618530954888956e-05  4.5249228842739585e-05  9.0220779624365225e-06  2.0154958570500723e-05  1.2806613576729231e-05  2.7921436879931302e-05  4.1805855092715172e-05  4.4566507846182750e-05  2.5152904152954701e-05  3.0376737889935919e-05  3.2627599977548415e-05  5.7409223925525392e-05  2.0970101019925061e-05  2.6381798050252371e-05  3.3442209351114030e-05  2.2366775748696527e-05  3.2925033298369596e-05  5.3413052920533602e-05  1.8525173725827740e-05  1.9678441932288629e-05  1.7319129258588457e-05  2.3574692004414286e-05  5.7347226248885429e-06  2.2130014188322731e-05  3.0250569242906054e-05  5.6250785721791217e-05  3.9309739605636995e-05  2.2111203293766894e-05  5.5584519648150168e-05  1.7802381622739265e-05  2.8000721506699526e-05  3.8104827606055457e-05  4.2295806645634458e-05  4.1287115452905202e-06  4.1796973531455453e-05  9.7376723646506328e-07  3.7462869918854035e-05  5.3748188593085695e-06  3.2504350005280048e-05  1.0696640323230886e-05  4.4184684513723135e-06  8.0437037061708360e-05  2.1604729129793738e-05  5.6144851085907916e-05  4.0176821614991967e-05  3.7630199361297250e-05  5.6286300255239294e-05  3.9913586768470091e-05  6.2592967565539977e-06  5.1249658101007273e-05  4.4311088863399057e-05  6.2232397650935058e-05  7.3145790894581348e-06  2.9526256391548619e-05  5.4828612478054796e-05  4.5830324159243217e-05  3.3678207334679568e-05  3.0696765143269421e-05  5.6881305173838294e-05  4.6528523250426900e-05  2.7136950313479377e-05  3.8659200979752613e-05  4.4831458765133011e-05  3.1967577334941289e-05  4.4562904309442892e-05  6.6917606934911519e-05  8.0536506585826028e-06  1.4041151155896825e-05  1.9586716233041950e-06  4.7501931226281353e-05  9.4815416967898712e-06  1.1855280328241927e-05  5.8595491262111942e-06  3.5771462060963366e-06  9.3950280113074822e-06  8.2937046005632113e-06  7.9073050339026852e-06  2.4800804559276774e-06  1.2278639309865509e-05  6.4128987406003042e-06  7.1283439602217009e-06  7.5423113954197892e-06  6.4212578875456848e-05  7.0229850741070347e-06  7.9258488936721272e-06  4.6952780640114449e-06  7.0543156765971896e-06  1.2289779921374095e-05  3.6585866638859656e-06  1.5219040905794195e-06  3.4510127454901344e-06  1.0084344127829562e-05  3.2133356240583586e-07  1.1889236037287832e-05  1.1021431435521305e-05  7.9279357021660676e-06  9.3345103142476878e-07  6.9513514816444402e-06  4.6551023845895585e-06  1.0631099973574173e-04  4.0117751235919625e-06  7.3133978026699484e-06  8.0311032657318063e-06  1.0812197330856976e-07  4.9352011101599874e-06  1.2257237525359898e-05  5.2882408843572939e-06  1.1874361003910141e-05  3.3189939109590687e-05  3.0113991577275131e-05  3.7837054881211239e-06  6.8702573123803170e-05  3.3648972671071074e-06  7.3158824919887295e-06  5.9775504251995034e-05  9.3646588055169508e-06  4.1306824642917685e-07  5.1275894614985891e-05  4.2854278429763871e-05  7.4885479397782097e-06  1.4260741163652567e-05  2.6604992688820882e-05  4.9100289279637917e-05  2.9502912947192853e-05  3.9133659709222092e-05  6.9722754292363834e-05  2.0096518350737416e-05  1.0410324429705315e-05  1.0063259883498646e-05  5.6095633782155694e-06  3.8172159228367545e-05  6.8136234829723700e-05  6.5496676621586475e-05  4.6676578431072766e-05  6.0705217249179010e-06  4.2391152797920815e-05  4.1078484719025018e-05  2.2564140594080651e-05  6.6367200890166396e-05  3.1587736764201894e-05  1.4545504501122795e-05  2.5108598180011808e-05  4.7100924347532808e-05  4.7365587340951270e-06  3.6178544154190462e-05  7.9508632685494542e-05  1.9002516345263796e-05  2.0264114234736221e-05  4.3575612734417772e-05  1.0050173235717384e-05  1.2856935635468855e-05  3.6635678405818315e-05  2.5501390842285364e-05  3.3609232784089798e-05  4.3825156013441791e-05  2.6962167725613350e-05  5.2774664579093851e-05  7.6373161974723309e-06  6.4189792839412508e-05  1.6356344134007116e-05  1.8966510121963162e-05  4.5089908674448052e-05  4.7845492431518644e-05  2.2482642736835687e-05  8.3203576932228875e-05  4.8440506812831723e-05  2.1511787370405130e-05  3.5434199249189583e-05  5.0343999960123279e-05  3.0455453392640207e-05  1.5973940794638497e-05  4.3678113437951243e-05  4.2087729852397701e-05  3.2024234950864960e-05  1.3632309651821273e-05  2.1503874632238343e-05  2.8766684363690767e-05  2.9585610841962829e-05  5.7224886963315965e-05  3.3572292545341518e-05  1.1943734411501733e-05  1.8085113812068934e-05  2.4021683126565795e-05  7.3288183423683948e-06  2.0775523055457806e-05  4.6615036661407336e-05  3.6451214084207773e-05  1.7393277070199799e-05  2.0386031807098070e-05  1.7374776720938757e-05  1.5827898426630295e-05  8.4056838315808386e-06  2.5090865473165782e-05  2.5600900458658177e-05  2.3616372660871809e-05  1.8918970267357497e-05  2.7055240064892076e-05  3.4695225598588841e-05  1.1776145887119961e-05  4.3497016284479306e-05  6.4133532200799737e-05  4.5148979496263546e-05  5.8102374354251279e-05  2.9205575519520257e-05  2.9225300600300011e-05  3.6583654443105345e-05  6.6896283630921678e-05  3.0177211195442220e-05  4.1702762312760003e-05  3.7784778041596403e-05  3.1831566016871584e-05  2.6457916501281562e-05  1.0783419192486707e-05  2.8836578514303024e-05  3.7500048004673916e-05  4.2539858098126816e-05  4.3642175048883110e-05  3.6004370720168576e-05  6.0201602108818596e-05  1.58276928457