<?xml version="1.0"?>
<VTKFile type="UnstructuredGrid"  version="0.1"  >
<UnstructuredGrid>
<Piece  NumberOfPoints="22086" NumberOfCells="43583">
<Points>
<DataArray  type="Float64"  NumberOfComponents="3"  format="ascii">0 1 0  0 0 0  1.754310344827586 0 0  1.754310344827586 1 0  0.8771551724137931 0 0  0.8771551724137931 1 0  0 0.5 0  1.754310344827586 0.5 0  1.31573275862069 0 0  1.198820832980316 0.5449001994153785 0  0.4385775862068966 1 0  0.5554895118472705 0.4550998005846215 0  1.31573275862069 1 0  0.4385775862068966 0 0  1.491901187948324 0.7121767498776806 0  1.459871618266729 0.3159181528387187 0  0 0.25 0  0 0.75 0  0.85698279790436 0.6445151749047618 0  0.8495407207966095 0.3217089786267279 0  0.2896631427509152 0.625 0  0.3057547254487171 0.2766880795884672 0  1.096443965517242 0 0  0.5829825330738546 0.7459908207443913 0  1.096443965517242 1 0  1.184685239168605 0.2654885429204601 0  0.6578663793103449 0 0  0.2192887931034483 1 0  1.754310344827586 0.75 0  1.754310344827586 0.25 0  1.206088362068966 0.7856000469288942 0  0.5367435610642833 0.2173486785635655 0  0.6578663793103449 1 0  1.535021551724138 0 0  1.535021551724138 1 0  0.2192887931034483 0 0  0.9867995689655173 0.8154633447554401 0  1.037145212942246 0.4130160684275306 0  0.9867995689655173 0.1714511747626912 0  0.3878163629905239 0.8030901961853564 0  1.407554716908239 0.5195706993607302 0  0.1900899455853398 0.8044367705674966 0  0.7690780147524516 0.8278181920521852 0  0.1950615311562609 0.4461018559171235 0  0.723370085634553 0.1789271798621732 0  0.3754626694088141 0.4431043004636258 0  0.6809958853035014 0.5899825360565676 0  1.040972222642132 0.6395600027167436 0  1.577827287039702 0.4547663259016622 0  1.425377155172414 0.1408153548356291 0  1.600295794770679 0.1639195096478655 0  1.305054267405687 0.3846928630102572 0  1.425377155172414 0.8692847493720958 0  1.754310344827586 0.625 0  1.318902224805092 0.6617341819394881 0  1.607110739547759 0.8420582544130644 0  0 0.125 0  0.1694556517017659 0.1674275036468404 0  0.6566902771289811 0.327505837393989 0  0.8873906135126559 0.4823252592659491 0  0.4497933752876567 0.6528386370242037 0  0.1303488918651211 0.6539392123006531 0  0.396308743798387 0.1499335799187231 0  1.274865756799585 0.144915067704875 0  0.5148873495163727 0.87533041644579 0  1.606705450849315 0.3107059456809668 0  0.1687037253643147 0.3080101631343138 0  1.123838226667449 0.1383036702837691 0  0.7403612404756494 0.452121532732831 0  0.4395950717663594 0.3184330646236586 0  1.602307822866263 0.6059848615937402 0  0 0.875 0  1.172502501215211 0.4121231751979648 0  0.8539617923966603 0.1356171732244227 0  0.2895373856151459 0.8895500309285205 0  0.6436566518023781 0.8605300512996887 0  0 0.375 0  0.7074682185741277 0.715406921162871 0  0.1096443965517241 1 0  1.352931674046062 0.2460358145399663 0  1.754310344827586 0.375 0  0 0.625 0  1.754310344827586 0.125 0  1.754310344827586 0.875 0  0.6134962111182843 0.1176973006608028 0  0.9762885987270158 0.2996706438872903 0  1.206088362068966 1 0  1.29803659351878 0.8738137249815958 0  1.105846064958277 0.8695721297231989 0  1.1643751928181 0.6663998670720269 0  0.5669479150485268 0.6271240070058989 0  0.767510775862069 0 0  0.1096443965517241 0 0  1.609472943136665 0.7239246412307254 0  1.384318930280376 0.7592614279943266 0  0.3289331896551724 0 0  1.08655634030367 0.7539986552060612 0  0.2793134468972505 0.1124026353240493 0  1.206088362068966 0 0  0.9989669364679719 0.5269653065681356 0  0.7884237377824957 0.5545304641838745 0  1.644665948275862 0 0  0.4600070857857591 0.5311801350646419 0  0.5014879972275923 0.1108108525829848 0  0.9867995689655173 0 0  0.9867995689655173 1 0  1.644665948275862 1 0  0.5482219827586208 1 0  0.767510775862069 1 0  0.5482219827586208 0 0  0.3289331896551724 1 0  1.425377155172414 1 0  1.425377155172414 0 0  1.075774579499046 0.2394454527331355 0  0.8811090223201781 0.8775077076420277 0  0.8655850946685014 0.7613698064496394 0  0.1146654838691145 0.5350627920522717 0  0.5480398345037966 0.3254302267055052 0  0.9504410282921513 0.6963791592294133 0  1.513832382118166 0.5427171884555553 0  0.1125468261279463 0.886866544103883 0  1.422672919762966 0.6277217248407395 0  1.469796687851824 0.4270140276960517 0  1.305941547489292 0.5549285794354256 0  1.105363840454476 0.4944278810462944 0  0.1043453668266153 0.3918556838386583 0  1.530703601185227 0.2404915218689337 0  0.28853060334233 0.7417175349660377 0  0.9000553660877157 0.2288807577615691 0  0.4863227362667394 0.7776963158135277 0  0.3920551367195187 0.9069952358257909 0  0.9264195989229005 0.3883600345513312 0  0.2863864725777297 0.5122708978584392 0  0.2534657814094981 0.3633928063984347 0  1.104324587858963 0.3368833858016449 0  0.1022046057413826 0.7522173754250846 0  0.2068078243465026 0.5709961637911141 0  1.041621767241379 0.08272368312342407 0  0.3789914676581284 0.5856365463675985 0  1.676291111589339 0.4375 0  0.7539567888332305 0.3525955186889921 0  1.20170962983853 0.8821914373327443 0  1.252608983362456 0.4652417583364866 0  0.7126885775862069 0.08138382582862247 0  0.8026316009248164 0.2360238123481024 0  0.6329190065773749 0.2120405443260463 0  0.9319773706896552 0.07916760906983936 0  0.0986779596643865 0.2373422797364392 0  0.724451224779356 0.9135100252836723 0  0.8259466292831409 0.4120369065757159 0  1.664118778228791 0.5326408238888364 0  0.6474500830905895 0.4241075272536889 0  1.016681904275818 0.90773167237772 0  0.9163510589212838 0.5717002726218808 0  0.6011425436108572 0.5384526074505042 0  0.3618796838649297 0.6840649972842506 0  1.116216487627127 0.5860935023326046 0  1.509757575382987 0.8123757478572596 0  1.53486864766619 0.9045075405912273 0  0.2010266461531987 0.7129892783518007 0  0.3551294467801138 0.3538137806508106 0  0.4660303954785709 0.4407831183426861 0  1.296779805528388 0.7830964362935277 0  0.7568907675764167 0.6394698489241449 0  1.535129921204784 0.365186015590645 0  1.480199353448276 0.07040767741781455 0  1.442287381365568 0.2284331423751004 0  1.370554956896552 0.07040767741781455 0  0.09652827516045467 0.09908270106040776 0  0.2007023984141357 0.9106138430035731 0  1.688179348934821 0.1875 0  1.58984375 0.07312545501992714 0  1.512836474971546 0.1523674322417473 0  1.690796441641771 0.6875 0  0.1965611135897926 0.08436525364760077 0  0.2547901172885068 0.2006201427142027 0  0.4456834651297838 0.2270592809810664 0  1.673370651989127 0.7842927658458733 0  1.677535935935907 0.08175549508758106 0  0.7230703110814245 0.2712507925622299 0  1.508282621367567 0.6281478783230168 0  1.363747758041495 0.9289324731475123 0  1.380202386999326 0.4339705693082364 0  1.373816471200088 0.3308416115349512 0  1.273483583075606 0.2961972963909693 0  0.06306331344293425 0.3160092313015831 0  0.6030441810344829 0.9351266487255032 0  1.246159572174036 0.6163721992350758 0  1.242899359118905 0.70581963850093 0  0.822332974137931 0.9369204714608761 0  1.669018765301623 0.9107736246362259 0  0.6324746657407736 0.6787996394284379 0  0.7841830943242853 0.7464504501401932 0  0.3546977728420156 0.0785272303814437 0  0.6747320781282573 0.5017055737630947 0  0 0.6875 0  0.5202148688316859 0.6939429995171351 0  0.9319773706896552 0.9404596124035139 0  1.674874606805671 0.3557857600857265 0  1.201570860992367 0.09092260453201945 0  0.7951264138585508 0.07775931129404634 0  0.06238191917571308 0.8229978723904234 0  1.675206563848217 0.2674629200986299 0  0 0.9375 0  0.6573253808944427 0.7799495370348812 0  1.151266163793104 0.9430519863038263 0  0.9699401033009967 0.4538696068388491 0  1.25519460713664 0.939189153125794 0  0.3350936191474609 0.2019245641374514 0  0.426757066324798 0.7273508241723161 0  1.231079396008496 0.3612041225417923 0  1.679234216666649 0.608097137702343 0  0.2955733989513041 0.4321605951211318 0  1.250009469448154 0.2203353993066757 0  1.58844386606084 0.5297486263987581 0  1.295299257710137 0.07245753385243746 0  1.350778951963813 0.1670036429608165 0  1.180364639345928 0.1894081130160217 0  0.4319764018945648 0.07701110001298692 0  0.07306408239782594 0.4660853570614888 0  0 0.1875 0  0.3794814777974633 0.2624817436944222 0  0.2665219478353795 0.815787096529234 0  1.010961683054739 0.7429936668473832 0  0.8134747139346677 0.4849399102002013 0  1.604099260580076 0.2372865872230676 0  0.5742196392894786 0.8239725989038643 0  0.4633469275131687 0.9294719714554303 0  0.4435955587227228 0.8528536808161506 0  0 0.5625 0  0.07372936466171669 0.6009362775732903 0  1.600432646818222 0.9399907442856771 0  1.480199353448276 1 0  0.5291928741767122 0.561635422311195 0  1.360261567716367 0.830911756696326 0  0.3896908158080655 0.514061847280552 0  0.2191560530698688 0.6426131618692058 0  0.4969649334730881 0.2761372857286258 0  1.324619653102217 0.4831209791208528 0  0.9684040265163192 0.6244677579334261 0  1.452788254310345 0.9346423746860479 0  0.5876990422512871 0.2666541008495285 0  0.4906231205838436 0.3714386645918413 0  1.054639103398959 0.1520670114242612 0  1.110776521736202 0.06902597430251817 0  0.1689693759682616 0.237718243368144 0  0.2337704207264567 0.269809895556408 0  0.1843749668565917 0.3765802924469769 0  0.4193343056939947 0.3868415421663855 0  0.6015148916239423 0.3709709421214211 0  1.606720481013199 0.3860289909429344 0  1.567138102617996 0.6673090440059151 0  0 0.0625 0  0.05482219827586207 0 0  0.1002700708544119 0.168171024132275 0  0.9181150454719674 0.161932955340217 0  0.8641542455817529 0.06756843267369071 0  0.7851691636040703 0.1467284268510901 0  1.35708173877455 0.6029119839020461 0  1.385003284267163 0.688099542438442 0  0.9500197042608904 0.8738524253000339 0  0.9123048911550946 0.814231339230612 0  1.453430052988438 0.7707232472813244 0  1.425787961796493 0.3749543940933707 0  1.104909292548019 0.4255211294092162 0  1.186218139105859 0.4784013864845725 0  0.06438656122448531 0.6676594902932401 0  0.6030441810344829 0 0  0.5601938915710085 0.070309451272144 0  1.045242842376845 0.3012931135907583 0  1.547091790375012 0.
[...]
<PointData  Scalars="f_371"> 
<DataArray  type="Float64"  Name="f_371"  format="ascii">4.0710187019885225e+01  1.0113408054029465e+00  1.9891546264975869e+01  1.7184677811203553e+00  1.4528775293565881e+00  4.7482394101101111e+00  1.0100831147189935e+00  1.0113408054029465e+00  1.7207863164390160e+00  1.2486829457901583e+00  1.1080136538756744e+00  3.8757048395015956e+00  1.0508469380023961e+00  1.1160791824670333e+00  1.2490231720402234e+00  2.4403980316091873e+00  1.0113408054029465e+00  1.0110880674916958e+00  1.0587648334029576e+00  7.0391682477595650e+00  1.1063490290482334e+00  1.0107145078005952e+00  1.3550976761563902e+00  1.0286203955966866e+00  1.2824764661440722e+00  1.0674199582758466e+00  1.9331429551968957e+00  1.0477193762403916e+00  1.0106041043751421e+00  1.0329154523216071e+00  1.1459577574176907e+00  1.3193746000493740e+00  1.1956195849314371e+00  1.4912126521885608e+02  1.3368275571658359e+00  1.1677177159767751e+00  1.2136011916140175e+00  1.0301641409431448e+00  2.8098669747808911e+00  2.4370030823960653e+02  1.8148956959186333e+00  1.0877683395404176e+00  5.5591471896299218e+01  1.0976627618173784e+00  1.0135860099586063e+00  1.0739285464402610e+00  9.0376576547030054e+03  1.0303008667709896e+00  1.0761993762242130e+00  1.2809217594287416e+01  1.0585361609005022e+00  1.6435643760189613e+00  2.1515815513507213e+00  1.0102009042486642e+00  2.3592035256916954e+00  1.0356386385306251e+00  1.0174940306175631e+00  2.2225724214969933e+00  1.0120686273814192e+00  1.2629490640342202e+00  1.3052023820324909e+00  3.3719620617018911e+00  1.0144804973632764e+00  1.0102899907232599e+00  1.0649561025889551e+00  1.0111599483946261e+00  1.9950506591173198e+00  1.2486575368876542e+00  5.0794299718804110e+00  1.2697335380280133e+00  4.2811203247890157e+00  1.0160706928111700e+00  1.0102894242620886e+00  1.0499713552253922e+00  2.2688376568902617e+00  1.1068002491040452e+00  1.0113408054029465e+00  2.1948957818361805e+00  2.9821356679374338e+00  1.0361888683216429e+00  1.0113408054029465e+00  2.5303565678613573e+00  1.0113408054029465e+00  1.0125696221659011e+00  1.0367989911155622e+00  8.7860868438252133e+00  1.0205334460983588e+00  3.3366051095545468e+00  1.4708546265200571e+00  1.3640124815449166e+00  1.3217680626486317e+00  9.4603876229952647e+01  2.0383836710231482e+00  1.0426370960548239e+00  1.3180649814495766e+01  1.5148212234049989e+00  1.4177644433171182e+01  1.2062556384430099e+00  1.0289877578900137e+00  2.4241402653833850e+00  1.1305312747459031e+00  1.1962906671021389e+00  2.4847836578488174e+00  1.1645859154776610e+00  1.0933125668944483e+00  1.0178273478099344e+00  1.0122763886975981e+00  2.0184803944946577e+01  1.2193452445155946e+00  1.2275589513292389e+00  1.6897771570184605e+00  1.0150633632944017e+00  3.3915542356178721e+00  2.0860215218261295e+00  1.0115375227898455e+00  1.0098248941247359e+00  1.0114759802378002e+00  1.2520596474557202e+00  1.1182354126279803e+00  2.1615359015371522e+00  2.0730739101107138e+00  5.0063574437765544e+02  1.0900779543047263e+00  6.9787682677272462e+00  2.1559725608718994e+00  1.0108802856013706e+00  1.0457290986529071e+00  2.0857017655605389e+02  1.0576796862975169e+00  1.3874212289653940e+00  3.6596758516633714e+00  1.1126839158519259e+00  2.4314601786642287e+00  1.0195993279011741e+00  1.2815273243486813e+00  4.5039513375061677e+00  1.0478787957231126e+00  1.0111825668293091e+00  1.0552653082956087e+00  1.9485870829986767e+00  1.6516117630717166e+00  1.0914988666909482e+00  1.0527339032444443e+00  1.1444796609104380e+00  1.0575999754407881e+00  1.1624829172173656e+00  1.0661204141569189e+00  7.3758084221937681e+00  1.0611221242179460e+00  9.7821935289762268e+02  1.7004829765866840e+00  5.7161412249279833e+00  1.0944786852485109e+00  3.5592126510545028e+00  1.1440682384691764e+01  1.2434422020884905e+00  1.0697110136259924e+00  1.0416308995609285e+00  2.7839603436604264e+01  1.0789268464180741e+00  2.5163937853520902e+03  1.0998333439603132e+00  1.6629140714821804e+00  8.5528875554361512e+03  1.0597636864947304e+00  1.1154766862136385e+00  1.0365580710653504e+00  3.9172904206956698e+00  3.5463287116408346e+00  1.4722937123913593e+00  1.1871805731848684e+00  1.1485175745763119e+00  1.0410675887237846e+00  1.0109392632309950e+00  1.4888643352995019e+00  1.7397496410167750e+00  1.4889563338812613e+02  1.6558547739897587e+00  3.2062707920397884e+00  1.0416950674757723e+00  3.5885949971207869e+00  1.0108926851894557e+00  1.0622248040935114e+00  1.0107304849602876e+00  1.0111507888831051e+00  1.0379903379805218e+00  1.9336710947220435e+00  1.1521611387804696e+00  1.0578394154978314e+00  1.1715184141573680e+00  1.5694732870273984e+00  1.0101928895189820e+00  1.0488846196495221e+00  1.0286287365971696e+00  1.0112405391249766e+00  1.0113408054029465e+00  3.7715378469418561e+00  1.0102607385709248e+00  1.1499205337234666e+00  1.0886051716099787e+00  1.2927599837720420e+00  1.1111726542490394e+00  3.4524148585929595e+00  1.1159906361493235e+00  1.1531078273792232e+00  1.5052976959961561e+00  1.0109544937306667e+00  1.0125070224494603e+00  2.0522084856868363e+00  3.9162661438944490e+01  1.0590181130504355e+00  1.3317519681672012e+00  1.4957263440524313e+00  1.7305847010507744e+00  1.7713861020572075e+01  2.1105999956580144e+00  1.0662619935428379e+00  1.0838404900305267e+00  1.0566241919054269e+00  1.0753724827840725e+00  1.0113408054029465e+00  1.0118579714298457e+00  2.1473284891308628e+00  4.7054596967861801e+00  1.2306168471856664e+00  1.2683314738042690e+00  2.1474886124959824e+00  1.5626057827488840e+00  1.0292829515806474e+00  1.0113408054029465e+00  1.2470146435091385e+00  1.1550691603660763e+00  1.0778958246641117e+00  1.5708033109825633e+01  1.0112486281369180e+00  1.1421287047154307e+00  1.0290880113225818e+00  1.2414549993204564e+00  1.0788136512403095e+00  2.3977966210882515e+00  1.7823953185318944e+00  1.0358695906202418e+00  1.0451042970782041e+00  1.0739219102517445e+00  1.0385972416184588e+00  1.0204983039177837e+00  1.2307601230265646e+00  1.0362931919431135e+00  1.6550737503263608e+02  1.2304390439284112e+00  1.0822932136910772e+00  1.0123785143196367e+00  1.1021846790989722e+00  1.0093166234174644e+00  1.1557994431988474e+00  1.0830539231285314e+00  1.7113264313195224e+00  1.2382475087289115e+00  1.3373296467668463e+00  2.1357847252201760e+00  1.5057495093451605e+00  1.0675032405334146e+00  1.3976423530674116e+00  1.2610301809857789e+00  1.4451297299285122e+00  1.1840713208866458e+00  1.3427122115388628e+00  1.4893316199773314e+00  1.0118537389772213e+00  1.5284714171999254e+00  1.1738789792496447e+00  1.0113408054029465e+00  1.0113408054029465e+00  1.0913394186684022e+00  1.2976147616852161e+00  1.0445460600229579e+00  1.2149189544456500e+00  5.7713005636183077e+00  8.0727773628077575e+00  1.2321048829089543e+00  1.4888629463926963e+00  1.0348115208662878e+00  2.0424470029446433e+00  1.0135141842353852e+00  4.6610169361865763e+00  1.7275186024378293e+00  1.1995941365018656e+00  1.1776575740246267e+00  1.1275100860688121e+00  1.1518432631964883e+00  2.0392335933401320e+00  1.0337635196554535e+00  1.0331214649945017e+00  1.0147088744116564e+00  1.4148750040420321e+00  1.0708080253426608e+00  1.2075313830909711e+00  1.2096164204630844e+00  1.4661124828665075e+00  1.5290852099858010e+00  1.7912071391966116e+01  1.0106416973692955e+00  1.1114874988468451e+01  1.6633827156629488e+00  1.1467747503603722e+00  1.1067105611918515e+00  1.3737870320253778e+03  1.1043611365369681e+00  2.0269570179433984e+02  1.0113408054029465e+00  1.0113408054029465e+00  1.0207327071239567e+00  1.0450309088140952e+00  1.0539335915488119e+00  1.0737777194906621e+00  1.0113408054029465e+00  1.0329465586349242e+00  1.0299798370753976e+00  1.3924629354853475e+00  1.0849087048746828e+00  1.0249669829249430e+00  4.6030849449883178e+00  1.0298472941255088e+00  1.1588888975848872e+00  1.7379594926832379e+01  1.0131488317890618e+00  1.2297792746489502e+00  1.7033880221517668e+00  1.1873100350901538e+00  1.0113871290663992e+00  1.6253241326612855e+00  1.8311302112445885e+03  1.0365663723320588e+00  1.6312473869270685e+00  3.6395446615406527e+01  5.1567002607127144e+00  1.5401001257837903e+00  1.2010066321551212e+00  1.0112961596519539e+00  1.0352726196368631e+00  1.9925987428880916e+00  1.1197751075794540e+00  1.4222562880219862e+00  1.0112373674210298e+00  1.0334790941374603e+00  1.0556124165294904e+00  1.0160154551748568e+00  1.1258244020247508e+00  1.0116300853080877e+00  1.0118172372200773e+00  1.1307430229691673e+00  1.2726743307015660e+00  2.3349674751833987e+01  4.5392206155781984e+00  1.0545802041366368e+00  7.9330091951996140e+00  1.2978338607038540e+00  1.6093403715123280e+00  9.9228045536783256e+00  2.4462874606696953e+01  1.0459992893681349e+00  1.3218564326004465e+00  1.2322245172768924e+00  1.4749961718821569e+00  1.0130615409012695e+00  1.2140220565689326e+00  1.0819664970482681e+00  1.0114645853491837e+00  1.2651182987642100e+00  1.1321893618691916e+00  1.4441820981686226e+02  2.3640693911733281e+00  1.0910347132056670e+00  1.3481910374958470e+00  1.0122896796111001e+00  1.0969234316956775e+00  1.2251910886558079e+00  1.0811674064985923e+00  1.0490686486593741e+00  1.4674408024110697e+00  1.0207028552816035e+00  1.4274056325323079e+00  1.1514808967384718e+00  3.3100330252876335e+00  1.0111118272603483e+00  1.0734317729864364e+00  1.0124150566939711e+00  1.0665460465857357e+00  1.4378220359161393e+00  2.4402864256414807e+00  2.2916453166039968e+01  2.3502844449700122e+00  1.1677340279799655e+00  2.1869731601734470e+00  1.0104305388300432e+00  1.0410348041632944e+00  1.0132210508201163e+00  1.0117031868331658e+00  4.3461808975744223e+00  1.8703496946506970e+00  5.3986229927269491e+00  4.8079096796947018e+00  1.8762430508593608e+00  5.2920188796734706e+01  1.0428124992565515e+00  1.0404804457500547e+00  1.0550705627542909e+00  1.6800750037751628e+00  1.0093166234174644e+00  1.1380590837954958e+00  4.2735753824783442e+00  1.8992560325177941e+01  1.1959098731543458e+00  1.0409517790845533e+00  2.8325228655731056e+00  1.2550483964473309e+00  1.9953948025154178e+00  1.0759901104246041e+00  3.0780170800257725e+04  1.0110048753174463e+00  1.0111415195140927e+00  2.9647608903765725e+00  1.4191946505566899e+00  1.0108466043499955e+00  5.1815761727804981e+00  4.2182726626985776e+00  1.8938598369239625e+02  1.0324672673762816e+00  1.1151948321652021e+00  1.1006162400321917e+00  1.0327268556320650e+00  1.0383248429316709e+00  1.0630742989824753e+00  1.3114721023579352e+00  1.0127294884026892e+00  1.1759529657111993e+00  1.0366052499174978e+00  1.4244762059354503e+00  3.8767765071796778e+00  1.5932271432499734e+04  2.4194894887458069e+00  3.1610452170919512e+00  1.7720565282425742e+00  4.3803080967381636e+00  1.3123507937287262e+00  1.0773743522725532e+00  1.1619538857741554e+00  1.0098733694796396e+00  1.0104444492185114e+00  1.0927726780158997e+00  1.1012700984425337e+00  1.0368768504864720e+00  1.2399969587865609e+00  1.6172834714710156e+00  8.3753210232651568e+01  1.0101217308410420e+00  1.2642173438153232e+00  1.0338389646702864e+00  1.0672339708425886e+00  1.0107016092605845e+00  5.4230242092450816e+00  1.0104801446642799e+00  3.4584106579416338e+00  8.4850527895594655e+02  1.0110764401100698e+00  1.3722530170872858e+00  3.1328656190566146e+00  1.0700941808300706e+00  1.9400465281707003e+01  1.9589615392336839e+00  1.0104765383053720e+00  1.0120549168922128e+00  1.1620381259010009e+00  3.3672626660042675e+00  1.2215747852211556e+00  1.1291247459005949e+00  1.1615648636522513e+00  3.4576529169667545e+01  1.0364302300939501e+00  1.7803092264959617e+00  1.9443414172553932e+00  1.0109684803514272e+00  1.0115409731240579e+00  1.9836091454697091e+00  1.0102723676595582e+00  2.3639031335255085e+00  1.1179665641126224e+00  1.4193689244515677e+00  3.3303949126330776e+00  1.0607602430743726e+00  1.0635213593973900e+00  1.0563735350241206e+00  1.0343260671524495e+00  1.0371329881809261e+00  1.0381945601366125e+00  1.0618510976478355e+00  1.6698019202490024e+00  2.0554249920105359e+00  1.0754117467037401e+00  1.0147085580391249e+00  3.7571074182634070e+00  1.0331972147546871e+00  1.0144479675101095e+00  1.4096553468286288e+00  1.7259608308632592e+00  1.1033139761627462e+00  1.6413204682198774e+01  1.0336463176552144e+00  1.0299063270101285e+00  1.0118700764055850e+00  4.2919804410883788e+00  2.4188474307176282e+00  1.1296017318707505e+00  1.0115000221206243e+00  1.0643509559971789e+00  1.6075735481362847e+00  1.2475441340394218e+00  1.9431280875086139e+00  1.0980432591846254e+00  4.4595276619449873e+00  1.0114170356802068e+00  1.3672193501537127e+00  1.1119554094259978e+00  2.1639821840710045e+00  1.0123359299875283e+00  1.1013933539426530e+00  1.1363810414629403e+00  1.0101602329848254e+00  1.0964959029852176e+01  3.5139860757782051e+00  1.1305726203095356e+00  1.0718089568360245e+00  1.6803212659392215e+00  2.0359578629069142e+00  1.4640919748827782e+01  1.1925626487162342e+01  1.6184238310255556e+00  2.2992624740372984e+00  1.0293539557489717e+00  1.0628537786750487e+00  1.1997537276635786e+00  3.6845098161788652e+00  1.0115204682508439e+00  1.0129395519396371e+00  9.3303750521999700e+03  1.1127700072785378e+00  1.5493262282748703e+00  1.5307394392091731e+00  3.2300087555498358e+01  1.0122242174816680e+00  1.0123816178917699e+00  1.0328857145202657e+00  1.3485896161698125e+00  1.0998567036774167e+00  1.1016033703095607e+00  2.3931007562355955e+00  1.0611411295532929e+00  1.7599688482478184e+00  1.0920476137759489e+00  2.2864560891031589e+00  2.3998650047881922e+00  1.0112570478981768e+00  1.0817010675181880e+00  1.2801921928910609e+00  3.8935423398907143e+00  4.9982662476502298e+01  1.3169425355683380e+00  1.0979764377680497e+00  1.4749669339542273e+00  1.1410974513163588e+00  1.0393636404786537e+00  1.2998091413409836e+00  1.1918871396109094e+00  1.0337208714618731e+00  1.0719474318532880e+00  1.2722827694642098e+00  1.0300483493934149e+00  1.9633378955635594e+00  1.0104243270513316e+00  1.1388424929785108e+00  1.0308570552421863e+00  1.1029702672906613e+01  7.3131093219399219e+01  1.0320748443333407e+00  1.0147099763220400e+00  2.3283664157817938e+00  1.0410421549298678e+00  1.6026126376824164e+00  1.5569286349206519e+00  1.1245717568757709e+00  2.5288010657537058e+01  1.0108060999562563e+00  3.2092352429624036e+00  1.3340126092241205e+00  1.4854649220436069e+00  1.0736321450704971e+00  1.7570666470047607e+00  1.3511615775508283e+00  1.0112324313637719e+00  1.3398546281056912e+01  1.0334904405750647e+00  1.0741333886590112e+00  1.0111732126701738e+00  2.1339539997827353e+00  2.2540249134418215e+00  1.0330420652161805e+00  1.0779343425674055e+00  1.3577849117022023e+00  1.0924077749623489e+00  1.2301450263166980e+00  1.1024890906449367e+00  3.1414219419469602e+00  1.5981509338937066e+01  1.4830675645581706e+00  1.1311675359719813e+00  1.2123721735632149e+00  1.3664639150706457e+00  6.4954346654591921e+00  7.4782282593317353e+00  1.2197486787891354e+00  1.0336514073255527e+00  1.0104976329619066e+00  1.4042912727997967e+00  3.2432107592887242e+01  3.3467338044373069e+00  5.2045165586884002e+02  1.0646474518787392e+00  1.0109724908858386e+00  1.0883187200125045e+01  2.6437453494548162e+00  1.2337756274185541e+00  1.0358103106555514e+00  4.5435161802619319e+00  1.1149269299548350e+00  2.2643900305385083e+00  1.0668574888086513e+00  3.4669863809383665e+00  1.7392692906925442e+00  1.1410915213081743e+00  2.5386970668443762e+00  2.3483935026825256e+00  1.0612473937140443e+00  1.0098418377195529e+01  7.1898714218536899e+00  2.7596730691227429e+00  1.2681063523816154e+00  1.0105521644235977e+00  1.0425383415364453e+00  7.5616702322901945e+00  1.1818982522725847e+01  1.0337484004077206e+00  1.1264754060592299e+00  1.3732791588077722e+01  1.1848059340522372e+00  1.4499191419374424e+00  3.9196093594233847e+00  9.2023193527136975e+00  1.3425858663950918e+00  1.0649559241444380e+00  1.5977713886287022e+00  3.0739629666705768e+00  5.0334932981504090e+02  2.2399384861108844e+00  3.3689268369544285e+00  4.1024380755350762e+00  1.0109840393978202e+00  1.0102751513108077e+00  1.3132590129317230e+00  1.8579289457551479e+03  1.1052285570058078e+00  1.9347554988667357e+00  6.6394476353844167e+00  2.0123749425776891e+00  1.0104186421880621e+00  1.8802609031432219e+03  1.0102990483008554e+00  1.0103798836855848e+00  1.4246293458749792e+00  1.9837265111143889e+00  2.1863795942744368e+00  1.0333904296798433e+00  1.0110612682967564e+00  1.1873649810358460e+00  8.7159194232264987e+00  1.0348600473611280e+00  1.2603594890007992e+01  1.0107291708607822e+00  1.0454654100772032e+00  1.0108569953097044e+00  1.6612830417451194e+00  1.6873626026149624e+00  1.6694712329058126e+00  1.5982044263114465e+00  1.0677627670536629e+00  6.3687230620874722e+00  1.2995697573332339e+00  1.0953920653239990e+00  1.1054766427570317e+00  1.8165040810736959e+00  1.1687024011614029e+00  1.5028914977954302e+00  1.0341802148793238e+00  1.0533019710468947e+00  2.1024472032269430e+00  1.7246434061318969e+00  3.4036282056589995e+00  1.0953152488618998e+00  4.2529788903677233e+00  1.0100474081320119e+00  4.3280289847395199e+00  1.0101601821907917e+00  1.4343264389039467e+00  1.0111339217059125e+00  1.0691317397665765e+00  1.0098871474791440e+00  1.0617213257242983e+00  1.0816373990873389e+00  3.4165111878079513e+00  1.0113408054029465e+00  1.3842062470855168e+00  1.2993592135448051e+00  3.5262862596148450e+00  1.0113408054029465e+00  1.0109862827615792e+00  5.4336219025653465e+00  1.3874767881199106e+00  1.0142941660182063e+00  1.1231568830825753e+00  1.0298776718064899e+00  1.0105121719318888e+00  1.2907602008962775e+00  3.9998432005506942e+01  1.0106264183693865e+00  1.0813807818453567e+00  1.0440750415091526e+00  1.0564689633435400e+00  1.0672623586637440e+00  1.0891656419915043e+00  1.1339585378586070e+00  1.0106389023946407e+00  2.4376425967558814e+02  1.0125474283693379e+00  1.1945724548621253e+00  2.5261247113115783e+00  1.7822604816861762e+00  1.6353187536635301e+00  1.2241021049817007e+00  1.0810329050891143e+00  1.0291378918548957e+00  2.3847191571240621e+01  1.0752984563275014e+00  3.7414439315746217e+00  2.6263557740199923e+00  1.1827163107965530e+00  1.8574973020479437e+00  1.0428329664821030e+00  1.2945205207809520e+00  1.5464840650877276e+00  1.5760722654187356e+00  1.0426405213603969e+00  1.0585369940707534e+00  1.4913082673288260e+00  2.5907208880965751e+00  1.2058589097712602e+00  1.0113408054029465e+00  1.4600057310573852e+03  1.6960546010682176e+00  9.6879588784609982e+00  1.0280315038907866e+00  1.0739450055106072e+00  1.2281110942734852e+00  1.0643221478035343e+00  1.0331331885783031e+00  1.0107352411571007e+00  5.6795574454234963e+00  2.0759392578148335e+00  1.1054737120387683e+00  1.0115430467609265e+00  1.0123917766945658e+00  5.0637027763262319e+00  1.0564201080617268e+00  1.2486117406674451e+00  3.8061857146298692e+00  3.4702669976842793e+00  8.2968358779282525e+00  1.6231655746951774e+00  1.0609384781970965e+00  1.0611588061185522e+00  1.3316483710415221e+00  1.1875347951909254e+00  1.0473988364809230e+00  1.0580681419118190e+00  2.1355653694674825e+00  1.1398498146724543e+00  1.1159865562679752e+00  2.0498088339841627e+00  1.1237463102725467e+00  4.2357658681279871e+00  2.0669598503803908e+00  1.0337489827685302e+04  1.0606601162719431e+00  1.0364619542271647e+00  1.4526785911327191e+00  1.0442473087987616e+00  1.0123209556397561e+00  8.9966378465404553e+00  1.0409092225883450e+00  5.7160802930122534e+00  1.0895343576036696e+00  1.4150173867438167e+00  1.0143892993290597e+00  1.0596156204625442e+00  3.1017702184056047e+03  1.3612241791689417e+01  1.0495424686891486e+00  1.3344184908329346e+00  1.0110927985776621e+00  5.4694765385975231e+01  1.7273344745655919e+01  1.8096960052316375e+04  1.0093166234174644e+00  1.0398042871544722e+00  2.6785045004860155e+00  1.3364568043797047e+00  3.7668536045335522e+01  3.2155868930995098e+03  1.3705659705217401e+00  1.1329395241836537e+00  7.3431889767679150e+00  9.234678937956015